 Entering Gaussian System, Link 0=g09
 Input=BMI_MTS_2.com
 Output=BMI_MTS_2.log
 Initial command:
 /gscratch/pfaendtner/codes/G09/g09/l1.exe /gscratch/pfaendtner/wesley/gaussian/Gau-32029.inp -scrdir=/gscratch/pfaendtner/wesley/gaussian/
 Entering Link 1 = /gscratch/pfaendtner/codes/G09/g09/l1.exe PID=     32043.
  
 Copyright (c) 1988,1990,1992,1993,1995,1998,2003,2009, Gaussian, Inc.
                  All Rights Reserved.
  
 This is part of the Gaussian(R) 09 program.  It is based on
 the Gaussian(R) 03 system (copyright 2003, Gaussian, Inc.),
 the Gaussian(R) 98 system (copyright 1998, Gaussian, Inc.),
 the Gaussian(R) 94 system (copyright 1995, Gaussian, Inc.),
 the Gaussian 92(TM) system (copyright 1992, Gaussian, Inc.),
 the Gaussian 90(TM) system (copyright 1990, Gaussian, Inc.),
 the Gaussian 88(TM) system (copyright 1988, Gaussian, Inc.),
 the Gaussian 86(TM) system (copyright 1986, Carnegie Mellon
 University), and the Gaussian 82(TM) system (copyright 1983,
 Carnegie Mellon University). Gaussian is a federally registered
 trademark of Gaussian, Inc.
  
 This software contains proprietary and confidential information,
 including trade secrets, belonging to Gaussian, Inc.
  
 This software is provided under written license and may be
 used, copied, transmitted, or stored only in accord with that
 written license.
  
 The following legend is applicable only to US Government
 contracts under FAR:
  
                    RESTRICTED RIGHTS LEGEND
  
 Use, reproduction and disclosure by the US Government is
 subject to restrictions as set forth in subparagraphs (a)
 and (c) of the Commercial Computer Software - Restricted
 Rights clause in FAR 52.227-19.
  
 Gaussian, Inc.
 340 Quinnipiac St., Bldg. 40, Wallingford CT 06492
  
  
 ---------------------------------------------------------------
 Warning -- This program may not be used in any manner that
 competes with the business of Gaussian, Inc. or will provide
 assistance to any competitor of Gaussian, Inc.  The licensee
 of this program is prohibited from giving any competitor of
 Gaussian, Inc. access to this program.  By using this program,
 the user acknowledges that Gaussian, Inc. is engaged in the
 business of creating and licensing software in the field of
 computational chemistry and represents and warrants to the
 licensee that it is not a competitor of Gaussian, Inc. and that
 it will not use this program in any manner prohibited above.
 ---------------------------------------------------------------
  

 Cite this work as:
 Gaussian 09, Revision A.02,
 M. J. Frisch, G. W. Trucks, H. B. Schlegel, G. E. Scuseria, 
 M. A. Robb, J. R. Cheeseman, G. Scalmani, V. Barone, B. Mennucci, 
 G. A. Petersson, H. Nakatsuji, M. Caricato, X. Li, H. P. Hratchian, 
 A. F. Izmaylov, J. Bloino, G. Zheng, J. L. Sonnenberg, M. Hada, 
 M. Ehara, K. Toyota, R. Fukuda, J. Hasegawa, M. Ishida, T. Nakajima, 
 Y. Honda, O. Kitao, H. Nakai, T. Vreven, J. A. Montgomery, Jr., 
 J. E. Peralta, F. Ogliaro, M. Bearpark, J. J. Heyd, E. Brothers, 
 K. N. Kudin, V. N. Staroverov, R. Kobayashi, J. Normand, 
 K. Raghavachari, A. Rendell, J. C. Burant, S. S. Iyengar, J. Tomasi, 
 M. Cossi, N. Rega, J. M. Millam, M. Klene, J. E. Knox, J. B. Cross, 
 V. Bakken, C. Adamo, J. Jaramillo, R. Gomperts, R. E. Stratmann, 
 O. Yazyev, A. J. Austin, R. Cammi, C. Pomelli, J. W. Ochterski, 
 R. L. Martin, K. Morokuma, V. G. Zakrzewski, G. A. Voth, 
 P. Salvador, J. J. Dannenberg, S. Dapprich, A. D. Daniels, 
 O. Farkas, J. B. Foresman, J. V. Ortiz, J. Cioslowski, 
 and D. J. Fox, Gaussian, Inc., Wallingford CT, 2009.
 
 ******************************************
 Gaussian 09:  EM64L-G09RevA.02 11-Jun-2009
                13-Mar-2017 
 ******************************************
 %chk=BMI_MTS_2.chk
 %nprocshared=2
 Will use up to    2 processors via shared memory.
 --------------------------------------
 # opt M062X/6-311+G* geom=connectivity
 --------------------------------------
 1/14=-1,18=20,19=15,26=3,38=1,57=2/1,3;
 2/9=110,12=2,17=6,18=5,40=1/2;
 3/5=4,6=6,7=11,11=2,16=1,25=1,30=1,71=1,74=-55/1,2,3;
 4//1;
 5/5=2,38=5/2;
 6/7=2,8=2,9=2,10=2,28=1/1;
 7//1,2,3,16;
 1/14=-1,18=20,19=15/3(2);
 2/9=110/2;
 99//99;
 2/9=110/2;
 3/5=4,6=6,7=11,11=2,16=1,25=1,30=1,71=1,74=-55/1,2,3;
 4/5=5,16=3/1;
 5/5=2,38=5/2;
 7//1,2,3,16;
 1/14=-1,18=20,19=15/3(-5);
 2/9=110/2;
 6/7=2,8=2,9=2,10=2,19=2,28=1/1;
 99/9=1/99;
 -------------------
 Title Card Required
 -------------------
 Symbolic Z-matrix:
 Charge =  0 Multiplicity = 1
 C                    -1.12041  -2.97501   0.32283 
 C                     0.13975  -2.93333   0.79161 
 C                    -0.92352  -1.24888   1.57011 
 N                    -1.75732  -1.91457   0.82427 
 H                    -1.53356  -3.71697  -0.32809 
 H                     0.91983  -3.63584   0.58456 
 H                    -1.15182  -0.3501    2.10394 
 N                     0.23178  -1.84879   1.56421 
 C                     1.43372  -1.40682   2.28594 
 H                     2.0263   -2.25859   2.54714 
 H                     2.00505  -0.75307   1.66057 
 H                     1.14469  -0.88708   3.17546 
 C                    -3.16191  -1.55879   0.57638 
 H                    -3.27488  -0.49597   0.62685 
 H                    -3.45082  -1.90246  -0.39487 
 C                    -4.05496  -2.22112   1.64191 
 H                    -3.94199  -3.28394   1.59144 
 H                    -3.76605  -1.87746   2.61316 
 C                    -5.52644  -1.8484    1.38222 
 H                    -5.63942  -0.78558   1.43269 
 H                    -5.81535  -2.19207   0.41097 
 C                    -6.4195   -2.51074   2.44775 
 H                    -6.13059  -2.16707   3.419 
 H                    -7.44189  -2.25177   2.26731 
 H                    -6.30652  -3.57356   2.39728 
 S                    -1.62618  -4.29212   3.81248 
 O                    -1.65118  -5.75268   3.97327 
 O                    -0.97741  -3.95053   2.53885 
 O                    -3.00192  -3.77533   3.81554 
 O                    -0.77167  -3.6078    5.07361 
 C                     0.56699  -4.11065   5.07063 
 H                     1.03935  -3.86195   4.14331 
 H                     1.11449  -3.6722    5.87865 
 H                     0.54879  -5.17408   5.1877 
 

 GradGradGradGradGradGradGradGradGradGradGradGradGradGradGradGradGradGrad
 Berny optimization.
 Initialization pass.
                           ----------------------------
                           !    Initial Parameters    !
                           ! (Angstroms and Degrees)  !
 --------------------------                            --------------------------
 ! Name  Definition              Value          Derivative Info.                !
 --------------------------------------------------------------------------------
 ! R1    R(1,2)                  1.3452         estimate D2E/DX2                !
 ! R2    R(1,4)                  1.3348         estimate D2E/DX2                !
 ! R3    R(1,5)                  1.07           estimate D2E/DX2                !
 ! R4    R(1,28)                 2.4255         estimate D2E/DX2                !
 ! R5    R(2,6)                  1.07           estimate D2E/DX2                !
 ! R6    R(2,8)                  1.3348         estimate D2E/DX2                !
 ! R7    R(2,28)                 2.3099         estimate D2E/DX2                !
 ! R8    R(3,4)                  1.3018         estimate D2E/DX2                !
 ! R9    R(3,7)                  1.07           estimate D2E/DX2                !
 ! R10   R(3,8)                  1.3018         estimate D2E/DX2                !
 ! R11   R(3,28)                 2.8706         estimate D2E/DX2                !
 ! R12   R(4,13)                 1.47           estimate D2E/DX2                !
 ! R13   R(4,28)                 2.7737         estimate D2E/DX2                !
 ! R14   R(5,28)                 2.9297         estimate D2E/DX2                !
 ! R15   R(6,28)                 2.7419         estimate D2E/DX2                !
 ! R16   R(8,9)                  1.47           estimate D2E/DX2                !
 ! R17   R(8,28)                 2.6133         estimate D2E/DX2                !
 ! R18   R(9,10)                 1.07           estimate D2E/DX2                !
 ! R19   R(9,11)                 1.07           estimate D2E/DX2                !
 ! R20   R(9,12)                 1.07           estimate D2E/DX2                !
 ! R21   R(13,14)                1.07           estimate D2E/DX2                !
 ! R22   R(13,15)                1.07           estimate D2E/DX2                !
 ! R23   R(13,16)                1.54           estimate D2E/DX2                !
 ! R24   R(16,17)                1.07           estimate D2E/DX2                !
 ! R25   R(16,18)                1.07           estimate D2E/DX2                !
 ! R26   R(16,19)                1.54           estimate D2E/DX2                !
 ! R27   R(16,29)                2.8721         estimate D2E/DX2                !
 ! R28   R(17,29)                2.4641         estimate D2E/DX2                !
 ! R29   R(18,29)                2.3731         estimate D2E/DX2                !
 ! R30   R(19,20)                1.07           estimate D2E/DX2                !
 ! R31   R(19,21)                1.07           estimate D2E/DX2                !
 ! R32   R(19,22)                1.54           estimate D2E/DX2                !
 ! R33   R(22,23)                1.07           estimate D2E/DX2                !
 ! R34   R(22,24)                1.07           estimate D2E/DX2                !
 ! R35   R(22,25)                1.07           estimate D2E/DX2                !
 ! R36   R(26,27)                1.4696         estimate D2E/DX2                !
 ! R37   R(26,28)                1.4696         estimate D2E/DX2                !
 ! R38   R(26,29)                1.4696         estimate D2E/DX2                !
 ! R39   R(26,30)                1.67           estimate D2E/DX2                !
 ! R40   R(30,31)                1.43           estimate D2E/DX2                !
 ! R41   R(31,32)                1.07           estimate D2E/DX2                !
 ! R42   R(31,33)                1.07           estimate D2E/DX2                !
 ! R43   R(31,34)                1.07           estimate D2E/DX2                !
 ! A1    A(2,1,4)              106.9463         estimate D2E/DX2                !
 ! A2    A(2,1,5)              126.5268         estimate D2E/DX2                !
 ! A3    A(4,1,5)              126.5268         estimate D2E/DX2                !
 ! A4    A(1,2,6)              126.5268         estimate D2E/DX2                !
 ! A5    A(1,2,8)              106.9463         estimate D2E/DX2                !
 ! A6    A(6,2,8)              126.5268         estimate D2E/DX2                !
 ! A7    A(4,3,7)              125.3602         estimate D2E/DX2                !
 ! A8    A(4,3,8)              109.2797         estimate D2E/DX2                !
 ! A9    A(7,3,8)              125.3602         estimate D2E/DX2                !
 ! A10   A(7,3,28)             128.1823         estimate D2E/DX2                !
 ! A11   A(1,4,3)              108.4138         estimate D2E/DX2                !
 ! A12   A(1,4,13)             125.7931         estimate D2E/DX2                !
 ! A13   A(3,4,13)             125.7931         estimate D2E/DX2                !
 ! A14   A(13,4,28)            123.4061         estimate D2E/DX2                !
 ! A15   A(2,8,3)              108.4138         estimate D2E/DX2                !
 ! A16   A(2,8,9)              125.7931         estimate D2E/DX2                !
 ! A17   A(3,8,9)              125.7931         estimate D2E/DX2                !
 ! A18   A(9,8,28)             115.9142         estimate D2E/DX2                !
 ! A19   A(8,9,10)             109.4712         estimate D2E/DX2                !
 ! A20   A(8,9,11)             109.4712         estimate D2E/DX2                !
 ! A21   A(8,9,12)             109.4712         estimate D2E/DX2                !
 ! A22   A(10,9,11)            109.4712         estimate D2E/DX2                !
 ! A23   A(10,9,12)            109.4712         estimate D2E/DX2                !
 ! A24   A(11,9,12)            109.4712         estimate D2E/DX2                !
 ! A25   A(4,13,14)            109.4712         estimate D2E/DX2                !
 ! A26   A(4,13,15)            109.4712         estimate D2E/DX2                !
 ! A27   A(4,13,16)            109.4712         estimate D2E/DX2                !
 ! A28   A(14,13,15)           109.4712         estimate D2E/DX2                !
 ! A29   A(14,13,16)           109.4712         estimate D2E/DX2                !
 ! A30   A(15,13,16)           109.4712         estimate D2E/DX2                !
 ! A31   A(13,16,17)           109.4712         estimate D2E/DX2                !
 ! A32   A(13,16,18)           109.4712         estimate D2E/DX2                !
 ! A33   A(13,16,19)           109.4712         estimate D2E/DX2                !
 ! A34   A(13,16,29)           122.9392         estimate D2E/DX2                !
 ! A35   A(17,16,18)           109.4712         estimate D2E/DX2                !
 ! A36   A(17,16,19)           109.4712         estimate D2E/DX2                !
 ! A37   A(18,16,19)           109.4712         estimate D2E/DX2                !
 ! A38   A(19,16,29)           127.5114         estimate D2E/DX2                !
 ! A39   A(16,19,20)           109.4712         estimate D2E/DX2                !
 ! A40   A(16,19,21)           109.4712         estimate D2E/DX2                !
 ! A41   A(16,19,22)           109.4712         estimate D2E/DX2                !
 ! A42   A(20,19,21)           109.4712         estimate D2E/DX2                !
 ! A43   A(20,19,22)           109.4712         estimate D2E/DX2                !
 ! A44   A(21,19,22)           109.4712         estimate D2E/DX2                !
 ! A45   A(19,22,23)           109.4712         estimate D2E/DX2                !
 ! A46   A(19,22,24)           109.4712         estimate D2E/DX2                !
 ! A47   A(19,22,25)           109.4712         estimate D2E/DX2                !
 ! A48   A(23,22,24)           109.4712         estimate D2E/DX2                !
 ! A49   A(23,22,25)           109.4712         estimate D2E/DX2                !
 ! A50   A(24,22,25)           109.4712         estimate D2E/DX2                !
 ! A51   A(27,26,28)           109.4712         estimate D2E/DX2                !
 ! A52   A(27,26,29)           109.4712         estimate D2E/DX2                !
 ! A53   A(27,26,30)           109.4712         estimate D2E/DX2                !
 ! A54   A(28,26,29)           109.4712         estimate D2E/DX2                !
 ! A55   A(28,26,30)           109.4712         estimate D2E/DX2                !
 ! A56   A(29,26,30)           109.4712         estimate D2E/DX2                !
 ! A57   A(1,28,3)              46.7049         estimate D2E/DX2                !
 ! A58   A(1,28,6)              48.9603         estimate D2E/DX2                !
 ! A59   A(1,28,8)              50.4361         estimate D2E/DX2                !
 ! A60   A(1,28,26)            149.2354         estimate D2E/DX2                !
 ! A61   A(2,28,3)              47.2501         estimate D2E/DX2                !
 ! A62   A(2,28,4)              49.0922         estimate D2E/DX2                !
 ! A63   A(2,28,5)              46.8815         estimate D2E/DX2                !
 ! A64   A(2,28,26)            166.268          estimate D2E/DX2                !
 ! A65   A(3,28,5)              66.315          estimate D2E/DX2                !
 ! A66   A(3,28,6)              68.8047         estimate D2E/DX2                !
 ! A67   A(3,28,26)            121.2996         estimate D2E/DX2                !
 ! A68   A(4,28,5)              44.2077         estimate D2E/DX2                !
 ! A69   A(4,28,6)              70.7138         estimate D2E/DX2                !
 ! A70   A(4,28,8)              46.3076         estimate D2E/DX2                !
 ! A71   A(4,28,26)            125.6067         estimate D2E/DX2                !
 ! A72   A(5,28,6)              54.8803         estimate D2E/DX2                !
 ! A73   A(5,28,8)              70.0474         estimate D2E/DX2                !
 ! A74   A(5,28,26)            141.5189         estimate D2E/DX2                !
 ! A75   A(6,28,8)              47.2889         estimate D2E/DX2                !
 ! A76   A(6,28,26)            161.7801         estimate D2E/DX2                !
 ! A77   A(8,28,26)            135.5956         estimate D2E/DX2                !
 ! A78   A(16,29,26)           122.1366         estimate D2E/DX2                !
 ! A79   A(17,29,18)            42.2981         estimate D2E/DX2                !
 ! A80   A(17,29,26)           115.1751         estimate D2E/DX2                !
 ! A81   A(18,29,26)           125.5638         estimate D2E/DX2                !
 ! A82   A(26,30,31)           109.4712         estimate D2E/DX2                !
 ! A83   A(30,31,32)           109.4712         estimate D2E/DX2                !
 ! A84   A(30,31,33)           109.4712         estimate D2E/DX2                !
 ! A85   A(30,31,34)           109.4712         estimate D2E/DX2                !
 ! A86   A(32,31,33)           109.4712         estimate D2E/DX2                !
 ! A87   A(32,31,34)           109.4712         estimate D2E/DX2                !
 ! A88   A(33,31,34)           109.4712         estimate D2E/DX2                !
 ! D1    D(4,1,2,6)           -179.9998         estimate D2E/DX2                !
 ! D2    D(4,1,2,8)              0.0            estimate D2E/DX2                !
 ! D3    D(5,1,2,6)              0.0            estimate D2E/DX2                !
 ! D4    D(5,1,2,8)            179.9998         estimate D2E/DX2                !
 ! D5    D(2,1,4,3)              0.0            estimate D2E/DX2                !
 ! D6    D(2,1,4,13)           180.0            estimate D2E/DX2                !
 ! D7    D(5,1,4,3)           -179.9998         estimate D2E/DX2                !
 ! D8    D(5,1,4,13)             0.0002         estimate D2E/DX2                !
 ! D9    D(1,2,8,3)              0.0            estimate D2E/DX2                !
 ! D10   D(1,2,8,9)            180.0            estimate D2E/DX2                !
 ! D11   D(6,2,8,3)            179.9998         estimate D2E/DX2                !
 ! D12   D(6,2,8,9)             -0.0002         estimate D2E/DX2                !
 ! D13   D(7,3,4,1)            179.9998         estimate D2E/DX2                !
 ! D14   D(7,3,4,13)            -0.0002         estimate D2E/DX2                !
 ! D15   D(8,3,4,1)              0.0            estimate D2E/DX2                !
 ! D16   D(8,3,4,13)           180.0            estimate D2E/DX2                !
 ! D17   D(4,3,8,2)              0.0            estimate D2E/DX2                !
 ! D18   D(4,3,8,9)           -180.0            estimate D2E/DX2                !
 ! D19   D(7,3,8,2)           -179.9998         estimate D2E/DX2                !
 ! D20   D(7,3,8,9)              0.0002         estimate D2E/DX2                !
 ! D21   D(7,3,28,1)           157.7006         estimate D2E/DX2                !
 ! D22   D(7,3,28,2)          -156.7397         estimate D2E/DX2                !
 ! D23   D(7,3,28,5)           150.9169         estimate D2E/DX2                !
 ! D24   D(7,3,28,6)          -149.3267         estimate D2E/DX2                !
 ! D25   D(7,3,28,26)           13.7186         estimate D2E/DX2                !
 ! D26   D(1,4,13,14)         -150.0            estimate D2E/DX2                !
 ! D27   D(1,4,13,15)          -30.0            estimate D2E/DX2                !
 ! D28   D(1,4,13,16)           90.0            estimate D2E/DX2                !
 ! D29   D(3,4,13,14)           30.0            estimate D2E/DX2                !
 ! D30   D(3,4,13,15)          150.0            estimate D2E/DX2                !
 ! D31   D(3,4,13,16)          -90.0            estimate D2E/DX2                !
 ! D32   D(28,4,13,14)         133.9383         estimate D2E/DX2                !
 ! D33   D(28,4,13,15)        -106.0617         estimate D2E/DX2                !
 ! D34   D(28,4,13,16)          13.9383         estimate D2E/DX2                !
 ! D35   D(13,4,28,2)          158.8789         estimate D2E/DX2                !
 ! D36   D(13,4,28,5)           92.8516         estimate D2E/DX2                !
 ! D37   D(13,4,28,6)          151.8954         estimate D2E/DX2                !
 ! D38   D(13,4,28,8)         -159.3717         estimate D2E/DX2                !
 ! D39   D(13,4,28,26)         -37.2904         estimate D2E/DX2                !
 ! D40   D(2,8,9,10)           -30.0            estimate D2E/DX2                !
 ! D41   D(2,8,9,11)            90.0            estimate D2E/DX2                !
 ! D42   D(2,8,9,12)          -150.0            estimate D2E/DX2                !
 ! D43   D(3,8,9,10)           150.0            estimate D2E/DX2                !
 ! D44   D(3,8,9,11)           -90.0            estimate D2E/DX2                !
 ! D45   D(3,8,9,12)            30.0            estimate D2E/DX2                !
 ! D46   D(28,8,9,10)           42.9511         estimate D2E/DX2                !
 ! D47   D(28,8,9,11)          162.9511         estimate D2E/DX2                !
 ! D48   D(28,8,9,12)          -77.0489         estimate D2E/DX2                !
 ! D49   D(9,8,28,1)          -160.6462         estimate D2E/DX2                !
 ! D50   D(9,8,28,4)           160.9146         estimate D2E/DX2                !
 ! D51   D(9,8,28,5)          -154.1451         estimate D2E/DX2                !
 ! D52   D(9,8,28,6)           -93.9998         estimate D2E/DX2                !
 ! D53   D(9,8,28,26)           60.8167         estimate D2E/DX2                !
 ! D54   D(4,13,16,17)         -60.0            estimate D2E/DX2                !
 ! D55   D(4,13,16,18)          60.0            estimate D2E/DX2                !
 ! D56   D(4,13,16,19)         180.0            estimate D2E/DX2                !
 ! D57   D(4,13,16,29)           2.996          estimate D2E/DX2                !
 ! D58   D(14,13,16,17)       -180.0            estimate D2E/DX2                !
 ! D59   D(14,13,16,18)        -60.0            estimate D2E/DX2                !
 ! D60   D(14,13,16,19)         60.0            estimate D2E/DX2                !
 ! D61   D(14,13,16,29)       -117.004          estimate D2E/DX2                !
 ! D62   D(15,13,16,17)         60.0            estimate D2E/DX2                !
 ! D63   D(15,13,16,18)        180.0            estimate D2E/DX2                !
 ! D64   D(15,13,16,19)        -60.0            estimate D2E/DX2                !
 ! D65   D(15,13,16,29)        122.996          estimate D2E/DX2                !
 ! D66   D(13,16,19,20)        -60.0            estimate D2E/DX2                !
 ! D67   D(13,16,19,21)         60.0            estimate D2E/DX2                !
 ! D68   D(13,16,19,22)        180.0            estimate D2E/DX2                !
 ! D69   D(17,16,19,20)        180.0            estimate D2E/DX2                !
 ! D70   D(17,16,19,21)        -60.0            estimate D2E/DX2                !
 ! D71   D(17,16,19,22)         60.0            estimate D2E/DX2                !
 ! D72   D(18,16,19,20)         60.0            estimate D2E/DX2                !
 ! D73   D(18,16,19,21)        180.0            estimate D2E/DX2                !
 ! D74   D(18,16,19,22)        -60.0            estimate D2E/DX2                !
 ! D75   D(29,16,19,20)        116.83           estimate D2E/DX2                !
 ! D76   D(29,16,19,21)       -123.17           estimate D2E/DX2                !
 ! D77   D(29,16,19,22)         -3.17           estimate D2E/DX2                !
 ! D78   D(13,16,29,26)        -16.2377         estimate D2E/DX2                !
 ! D79   D(19,16,29,26)        167.324          estimate D2E/DX2                !
 ! D80   D(16,19,22,23)         60.0            estimate D2E/DX2                !
 ! D81   D(16,19,22,24)        180.0            estimate D2E/DX2                !
 ! D82   D(16,19,22,25)        -60.0            estimate D2E/DX2                !
 ! D83   D(20,19,22,23)        -60.0            estimate D2E/DX2                !
 ! D84   D(20,19,22,24)         60.0            estimate D2E/DX2                !
 ! D85   D(20,19,22,25)       -180.0            estimate D2E/DX2                !
 ! D86   D(21,19,22,23)        180.0            estimate D2E/DX2                !
 ! D87   D(21,19,22,24)        -60.0            estimate D2E/DX2                !
 ! D88   D(21,19,22,25)         60.0            estimate D2E/DX2                !
 ! D89   D(27,26,28,1)         116.113          estimate D2E/DX2                !
 ! D90   D(27,26,28,2)        -156.2419         estimate D2E/DX2                !
 ! D91   D(27,26,28,3)         172.9085         estimate D2E/DX2                !
 ! D92   D(27,26,28,4)         141.3087         estimate D2E/DX2                !
 ! D93   D(27,26,28,5)          82.3725         estimate D2E/DX2                !
 ! D94   D(27,26,28,6)         -67.502          estimate D2E/DX2                !
 ! D95   D(27,26,28,8)        -157.5802         estimate D2E/DX2                !
 ! D96   D(29,26,28,1)          -3.887          estimate D2E/DX2                !
 ! D97   D(29,26,28,2)          83.7581         estimate D2E/DX2                !
 ! D98   D(29,26,28,3)          52.9085         estimate D2E/DX2                !
 ! D99   D(29,26,28,4)          21.3087         estimate D2E/DX2                !
 ! D100  D(29,26,28,5)         -37.6275         estimate D2E/DX2                !
 ! D101  D(29,26,28,6)         172.498          estimate D2E/DX2                !
 ! D102  D(29,26,28,8)          82.4198         estimate D2E/DX2                !
 ! D103  D(30,26,28,1)        -123.887          estimate D2E/DX2                !
 ! D104  D(30,26,28,2)         -36.2419         estimate D2E/DX2                !
 ! D105  D(30,26,28,3)         -67.0915         estimate D2E/DX2                !
 ! D106  D(30,26,28,4)         -98.6913         estimate D2E/DX2                !
 ! D107  D(30,26,28,5)        -157.6275         estimate D2E/DX2                !
 ! D108  D(30,26,28,6)          52.498          estimate D2E/DX2                !
 ! D109  D(30,26,28,8)         -37.5802         estimate D2E/DX2                !
 ! D110  D(27,26,29,16)       -123.1922         estimate D2E/DX2                !
 ! D111  D(27,26,29,17)       -100.0337         estimate D2E/DX2                !
 ! D112  D(27,26,29,18)       -148.0723         estimate D2E/DX2                !
 ! D113  D(28,26,29,16)         -3.1922         estimate D2E/DX2                !
 ! D114  D(28,26,29,17)         19.9663         estimate D2E/DX2                !
 ! D115  D(28,26,29,18)        -28.0723         estimate D2E/DX2                !
 ! D116  D(30,26,29,16)        116.8078         estimate D2E/DX2                !
 ! D117  D(30,26,29,17)        139.9663         estimate D2E/DX2                !
 ! D118  D(30,26,29,18)         91.9277         estimate D2E/DX2                !
 ! D119  D(27,26,30,31)         60.0            estimate D2E/DX2                !
 ! D120  D(28,26,30,31)        -60.0            estimate D2E/DX2                !
 ! D121  D(29,26,30,31)        180.0            estimate D2E/DX2                !
 ! D122  D(26,30,31,32)         60.0            estimate D2E/DX2                !
 ! D123  D(26,30,31,33)        180.0            estimate D2E/DX2                !
 ! D124  D(26,30,31,34)        -60.0            estimate D2E/DX2                !
 --------------------------------------------------------------------------------
 Trust Radius=3.00D-01 FncErr=1.00D-07 GrdErr=1.00D-06
 Number of steps in this run= 204 maximum allowed number of steps= 204.
 GradGradGradGradGradGradGradGradGradGradGradGradGradGradGradGradGradGrad

                          Input orientation:                          
 ---------------------------------------------------------------------
 Center     Atomic      Atomic             Coordinates (Angstroms)
 Number     Number       Type             X           Y           Z
 ---------------------------------------------------------------------
      1          6           0       -1.120410   -2.975007    0.322830
      2          6           0        0.139747   -2.933334    0.791606
      3          6           0       -0.923516   -1.248877    1.570105
      4          7           0       -1.757316   -1.914567    0.824274
      5          1           0       -1.533559   -3.716968   -0.328093
      6          1           0        0.919826   -3.635836    0.584561
      7          1           0       -1.151825   -0.350104    2.103943
      8          7           0        0.231776   -1.848789    1.564212
      9          6           0        1.433719   -1.406816    2.285942
     10          1           0        2.026299   -2.258593    2.547140
     11          1           0        2.005052   -0.753067    1.660571
     12          1           0        1.144688   -0.887080    3.175457
     13          6           0       -3.161906   -1.558791    0.576380
     14          1           0       -3.274882   -0.495970    0.626851
     15          1           0       -3.450816   -1.902455   -0.394870
     16          6           0       -4.054965   -2.221122    1.641914
     17          1           0       -3.941988   -3.283944    1.591443
     18          1           0       -3.766055   -1.877458    2.613164
     19          6           0       -5.526440   -1.848405    1.382215
     20          1           0       -5.639416   -0.785583    1.432686
     21          1           0       -5.815350   -2.192069    0.410965
     22          6           0       -6.419498   -2.510736    2.447749
     23          1           0       -6.130588   -2.167072    3.418999
     24          1           0       -7.441887   -2.251770    2.267309
     25          1           0       -6.306522   -3.573557    2.397278
     26         16           0       -1.626181   -4.292115    3.812485
     27          8           0       -1.651180   -5.752679    3.973272
     28          8           0       -0.977411   -3.950531    2.538851
     29          8           0       -3.001918   -3.775334    3.815544
     30          8           0       -0.771674   -3.607799    5.073607
     31          6           0        0.566992   -4.110655    5.070630
     32          1           0        1.039354   -3.861951    4.143311
     33          1           0        1.114491   -3.672201    5.878654
     34          1           0        0.548790   -5.174076    5.187698
 ---------------------------------------------------------------------
                    Distance matrix (angstroms):
                    1          2          3          4          5
     1  C    0.000000
     2  C    1.345170   0.000000
     3  C    2.138688   2.138688   0.000000
     4  N    1.334777   2.153556   1.301780   0.000000
     5  H    1.070000   2.160500   3.172820   2.150969   0.000000
     6  H    2.160500   1.070000   3.172820   3.191758   2.618896
     7  H    3.172297   3.172297   1.070000   2.109909   4.170887
     8  N    2.153556   1.334777   1.301780   2.123281   3.191758
     9  C    3.582821   2.497531   2.468587   3.546405   4.579817
    10  H    3.919513   2.663880   3.267344   4.171614   4.802751
    11  H    4.061414   2.998004   2.971620   4.025406   5.026059
    12  H    4.198522   3.298455   2.643013   3.873683   5.239860
    13  C    2.497531   3.582821   2.468587   1.470000   2.850845
    14  H    3.298455   4.198522   2.643013   2.086720   3.784040
    15  H    2.663880   3.919513   3.267344   2.086720   2.640605
    16  C    3.304533   4.338880   3.279693   2.457987   3.532134
    17  H    3.109039   4.174115   3.640484   2.690081   3.110091
    18  H    3.667380   4.437142   3.092428   2.690081   4.125388
    19  C    4.669542   5.799273   4.645604   3.810770   4.728613
    20  H    5.142642   6.198592   4.740594   4.088455   5.343353
    21  H    4.760590   6.013114   5.115002   4.088455   4.604917
    22  C    5.728103   6.778282   5.706870   4.972628   5.747409
    23  H    5.944822   6.841598   5.601347   5.091352   6.129891
    24  H    6.653205   7.753928   6.631820   5.874555   6.617497
    25  H    5.617594   6.674014   5.921580   5.091352   5.498127
    26  S    3.764076   3.753731   3.844906   3.820908   4.181359
    27  O    4.617673   4.612930   5.156446   4.965738   4.760221
    28  O    2.425458   2.309891   2.870594   2.773658   2.929714
    29  O    4.047177   4.441083   3.967963   3.736199   4.396500
    30  O    4.805405   4.429573   4.226357   4.679247   5.456258
    31  C    5.165135   4.458550   4.760784   5.315708   5.806334
    32  H    4.477424   3.592430   4.159616   4.757066   5.160849
    33  H    6.028934   5.232027   5.346921   6.073163   6.748177
    34  H    5.593663   4.951147   5.537314   5.914558   6.073162
                    6          7          8          9         10
     6  H    0.000000
     7  H    4.170887   0.000000
     8  N    2.150969   2.109909   0.000000
     9  C    2.850845   2.799071   1.470000   0.000000
    10  H    2.640606   3.733527   2.086720   1.070000   0.000000
    11  H    3.262801   3.213227   2.086720   1.070000   1.747303
    12  H    3.784041   2.590455   2.086720   1.070000   1.747303
    13  C    4.579817   2.799071   3.546405   4.905656   5.593844
    14  H    5.239859   2.590453   3.873683   5.074756   5.907357
    15  H    4.802750   3.733526   4.171614   5.593844   6.227443
    16  C    5.279011   3.484595   4.303582   5.586010   6.148383
    17  H    4.977438   4.081064   4.413697   5.736215   6.130674
    18  H    5.400426   3.070231   4.133252   5.231273   5.805255
    19  C    6.736877   4.680069   5.761091   7.032462   7.653049
    20  H    7.201869   4.558366   5.968132   7.151448   7.885109
    21  H    6.890370   5.292208   6.165675   7.528688   8.127676
    22  C    7.655260   5.703939   6.742275   7.932077   8.450145
    23  H    7.739487   5.460662   6.634849   7.686387   8.203860
    24  H    8.640922   6.573272   7.716336   8.915754   9.472323
    25  H    7.450499   6.086674   6.813088   8.038563   8.437269
    26  S    4.163214   4.322451   3.804810   4.474178   4.367714
    27  O    4.751260   5.738603   4.958776   5.590189   5.269378
    28  O    2.741860   3.630791   2.613308   3.513972   3.447463
    29  O    5.083187   4.252602   4.385983   5.255895   5.402991
    30  O    4.797238   4.424477   4.051775   4.180808   4.004003
    31  C    4.524905   5.088940   4.186093   3.976990   3.453652
    32  H    3.567930   4.614473   3.369979   3.103713   2.468315
    33  H    5.297796   5.515520   4.766385   4.259279   3.732113
    34  H    4.867517   5.972633   4.928253   4.836893   4.201859
                   11         12         13         14         15
    11  H    0.000000
    12  H    1.747303   0.000000
    13  C    5.340610   5.074756   0.000000
    14  H    5.386314   5.116733   1.070000   0.000000
    15  H    5.942426   5.907357   1.070000   1.747303   0.000000
    16  C    6.235330   5.582814   1.540000   2.148263   2.148263
    17  H    6.463545   5.841946   2.148263   3.024610   2.468846
    18  H    5.956288   5.041073   2.148263   2.468846   3.024610
    19  C    7.615814   6.974511   2.514809   2.732978   2.732978
    20  H    7.647933   7.005113   2.732978   2.514809   3.062243
    21  H    8.049281   7.601811   2.732978   3.062243   2.514809
    22  C    8.641881   7.770632   3.875582   4.154945   4.154945
    23  H    8.442756   7.391031   4.154945   4.329403   4.668704
    24  H    9.584305   8.741646   4.653783   4.810184   4.810184
    25  H    8.807961   7.958847   4.154945   4.668704   4.329403
    26  S    5.508308   4.435965   4.505762   5.222758   5.171228
    27  O    6.611562   5.668107   5.604451   6.439560   6.094553
    28  O    4.459848   3.780649   3.787312   4.568163   4.349605
    29  O    6.232797   5.093727   3.928211   4.582194   4.629986
    30  O    5.244856   3.831152   5.489690   5.976886   6.323783
    31  C    4.996991   3.783761   6.372988   6.897327   7.133766
    32  H    4.094110   3.130127   5.973118   6.504457   6.678050
    33  H    5.206407   3.881377   7.132194   7.545626   7.958086
    34  H    5.840090   4.773106   6.935691   7.570104   7.606932
                   16         17         18         19         20
    16  C    0.000000
    17  H    1.070000   0.000000
    18  H    1.070000   1.747303   0.000000
    19  C    1.540000   2.148263   2.148263   0.000000
    20  H    2.148263   3.024610   2.468846   1.070000   0.000000
    21  H    2.148263   2.468846   3.024610   1.070000   1.747303
    22  C    2.514809   2.732978   2.732978   1.540000   2.148263
    23  H    2.732978   3.062243   2.514809   2.148263   2.468846
    24  H    3.444314   3.710993   3.710993   2.148263   2.468846
    25  H    2.732978   2.514809   3.062243   2.148263   3.024610
    26  S    3.859971   3.363391   3.442092   5.204800   5.836545
    27  O    4.866755   4.124993   4.619515   6.080672   6.858035
    28  O    3.642346   3.182867   3.475584   5.142995   5.742367
    29  O    2.872133   2.464107   2.373089   4.000919   4.644676
    30  O    4.947665   4.720301   4.244311   6.271334   6.701948
    31  C    6.057138   5.754920   5.459084   7.473426   7.925291
    32  H    5.907740   5.626713   5.419550   7.401870   7.836932
    33  H    6.839508   6.640701   6.140379   8.224728   8.585712
    34  H    6.518211   6.055803   6.009476   7.902544   8.464802
                   21         22         23         24         25
    21  H    0.000000
    22  C    2.148263   0.000000
    23  H    3.024610   1.070000   0.000000
    24  H    2.468846   1.070000   1.747303   0.000000
    25  H    2.468846   1.070000   1.747303   1.747303   0.000000
    26  S    5.790480   5.292609   4.996031   6.353976   4.942138
    27  O    6.535157   5.964417   5.764451   6.978464   5.376294
    28  O    5.570075   5.630064   5.523642   6.689467   5.344303
    29  O    4.691831   3.892291   3.540103   4.942833   3.601750
    30  O    7.013072   6.324286   5.790629   7.362463   6.148045
    31  C    8.131896   7.632188   7.166797   8.686553   7.394625
    32  H    7.981596   7.767574   7.403062   8.834224   7.556038
    33  H    8.950369   8.359492   7.797852   9.395267   8.197630
    34  H    8.497754   7.947185   7.535547   8.995525   7.572543
                   26         27         28         29         30
    26  S    0.000000
    27  O    1.469600   0.000000
    28  O    1.469600   2.399847   0.000000
    29  O    1.469600   2.399847   2.399847   0.000000
    30  O    1.670000   2.566082   2.566082   2.566082   0.000000
    31  C    2.534929   2.969971   2.969971   3.798000   1.430000
    32  H    2.720214   3.292832   2.578659   4.055467   2.051796
    33  H    3.487783   3.950672   3.950672   4.605636   2.051796
    34  H    2.720214   2.578659   3.292832   4.055467   2.051796
                   31         32         33         34
    31  C    0.000000
    32  H    1.070000   0.000000
    33  H    1.070000   1.747303   0.000000
    34  H    1.070000   1.747303   1.747303   0.000000
 Stoichiometry    C9H18N2O4S
 Framework group  C1[X(C9H18N2O4S)]
 Deg. of freedom    96
 Full point group                 C1      NOp   1
 Largest Abelian subgroup         C1      NOp   1
 Largest concise Abelian subgroup C1      NOp   1
                         Standard orientation:                         
 ---------------------------------------------------------------------
 Center     Atomic      Atomic             Coordinates (Angstroms)
 Number     Number       Type             X           Y           Z
 ---------------------------------------------------------------------
      1          6           0        0.142068    1.830863    1.376815
      2          6           0       -1.153569    2.055522    1.093375
      3          6           0       -0.058283    2.027704   -0.743351
      4          7           0        0.798218    1.819038    0.214509
      5          1           0        0.565966    1.688711    2.348927
      6          1           0       -1.956493    2.126095    1.797102
      7          1           0        0.177555    2.072250   -1.786086
      8          7           0       -1.246877    2.173649   -0.232886
      9          6           0       -2.482172    2.425760   -0.988787
     10          1           0       -3.313628    2.002771   -0.464706
     11          1           0       -2.626552    3.480680   -1.094609
     12          1           0       -2.405495    1.977339   -1.957259
     13          6           0        2.242842    1.606462    0.044879
     14          1           0        2.581427    2.133312   -0.822698
     15          1           0        2.760615    1.970207    0.907723
     16          6           0        2.523740    0.101972   -0.126018
     17          1           0        2.185154   -0.424878    0.741558
     18          1           0        2.005967   -0.261773   -0.988863
     19          6           0        4.037155   -0.120726   -0.303726
     20          1           0        4.375741    0.406124   -1.171302
     21          1           0        4.554929    0.243019    0.559118
     22          6           0        4.318053   -1.625217   -0.474623
     23          1           0        3.800280   -1.988962   -1.337467
     24          1           0        5.369582   -1.779949   -0.598095
     25          1           0        3.979468   -2.152067    0.392953
     26         16           0       -0.927765   -1.589799    0.226687
     27          8           0       -1.309697   -2.551368    1.270353
     28          8           0       -0.991357   -0.225897    0.770242
     29          8           0        0.441833   -1.874193   -0.223916
     30          8           0       -1.977851   -1.723820   -1.064923
     31          6           0       -3.310545   -1.447089   -0.626462
     32          1           0       -3.356845   -0.454047   -0.230705
     33          1           0       -3.983354   -1.532959   -1.454021
     34          1           0       -3.588625   -2.147197    0.133420
 ---------------------------------------------------------------------
 Rotational constants (GHZ):      0.5568775      0.3933044      0.2664713
 Standard basis: 6-311+G(d) (5D, 7F)
 There are   414 symmetry adapted basis functions of A   symmetry.
 Integral buffers will be    131072 words long.
 Raffenetti 2 integral format.
 Two-electron integral symmetry is turned on.
   414 basis functions,   680 primitive gaussians,   430 cartesian basis functions
    67 alpha electrons       67 beta electrons
       nuclear repulsion energy      1426.3029460891 Hartrees.
 NAtoms=   34 NActive=   34 NUniq=   34 SFac= 7.50D-01 NAtFMM=   80 NAOKFM=F Big=F
 One-electron integrals computed using PRISM.
 NBasis=   414 RedAO= T  NBF=   414
 NBsUse=   414 1.00D-06 NBFU=   414
 Harris functional with IExCor= 1009 diagonalized for initial guess.
 ExpMin= 4.05D-02 ExpMax= 9.34D+04 ExpMxC= 3.17D+03 IAcc=2 IRadAn=         0 AccDes= 0.00D+00
 HarFok:  IExCor= 1009 AccDes= 0.00D+00 IRadAn=         0 IDoV= 1
 ScaDFX=  1.000000  1.000000  1.000000  1.000000
 FoFCou: FMM=F IPFlag=           0 FMFlag=      100000 FMFlg1=           0
         NFxFlg=           0 DoJE=T BraDBF=F KetDBF=T FulRan=T
         Omega=  0.000000  0.000000  1.000000  0.000000  0.000000 ICntrl=     500 IOpCl=  0
         NMat0=    1 NMatS0=    1 NMatT0=    0 NMatD0=    1 NMtDS0=    0 NMtDT0=    0
         I1Cent=           4 NGrid=           0.
 Petite list used in FoFCou.
 Initial guess orbital symmetries:
       Occupied  (A) (A) (A) (A) (A) (A) (A) (A) (A) (A) (A) (A)
                 (A) (A) (A) (A) (A) (A) (A) (A) (A) (A) (A) (A)
                 (A) (A) (A) (A) (A) (A) (A) (A) (A) (A) (A) (A)
                 (A) (A) (A) (A) (A) (A) (A) (A) (A) (A) (A) (A)
                 (A) (A) (A) (A) (A) (A) (A) (A) (A) (A) (A) (A)
                 (A) (A) (A) (A) (A) (A) (A)
       Virtual   (A) (A) (A) (A) (A) (A) (A) (A) (A) (A) (A) (A)
                 (A) (A) (A) (A) (A) (A) (A) (A) (A) (A) (A) (A)
                 (A) (A) (A) (A) (A) (A) (A) (A) (A) (A) (A) (A)
                 (A) (A) (A) (A) (A) (A) (A) (A) (A) (A) (A) (A)
                 (A) (A) (A) (A) (A) (A) (A) (A) (A) (A) (A) (A)
                 (A) (A) (A) (A) (A) (A) (A) (A) (A) (A) (A) (A)
                 (A) (A) (A) (A) (A) (A) (A) (A) (A) (A) (A) (A)
                 (A) (A) (A) (A) (A) (A) (A) (A) (A) (A) (A) (A)
                 (A) (A) (A) (A) (A) (A) (A) (A) (A) (A) (A) (A)
                 (A) (A) (A) (A) (A) (A) (A) (A) (A) (A) (A) (A)
                 (A) (A) (A) (A) (A) (A) (A) (A) (A) (A) (A) (A)
                 (A) (A) (A) (A) (A) (A) (A) (A) (A) (A) (A) (A)
                 (A) (A) (A) (A) (A) (A) (A) (A) (A) (A) (A) (A)
                 (A) (A) (A) (A) (A) (A) (A) (A) (A) (A) (A) (A)
                 (A) (A) (A) (A) (A) (A) (A) (A) (A) (A) (A) (A)
                 (A) (A) (A) (A) (A) (A) (A) (A) (A) (A) (A) (A)
                 (A) (A) (A) (A) (A) (A) (A) (A) (A) (A) (A) (A)
                 (A) (A) (A) (A) (A) (A) (A) (A) (A) (A) (A) (A)
                 (A) (A) (A) (A) (A) (A) (A) (A) (A) (A) (A) (A)
                 (A) (A) (A) (A) (A) (A) (A) (A) (A) (A) (A) (A)
                 (A) (A) (A) (A) (A) (A) (A) (A) (A) (A) (A) (A)
                 (A) (A) (A) (A) (A) (A) (A) (A) (A) (A) (A) (A)
                 (A) (A) (A) (A) (A) (A) (A) (A) (A) (A) (A) (A)
                 (A) (A) (A) (A) (A) (A) (A) (A) (A) (A) (A) (A)
                 (A) (A) (A) (A) (A) (A) (A) (A) (A) (A) (A) (A)
                 (A) (A) (A) (A) (A) (A) (A) (A) (A) (A) (A) (A)
                 (A) (A) (A) (A) (A) (A) (A) (A) (A) (A) (A) (A)
                 (A) (A) (A) (A) (A) (A) (A) (A) (A) (A) (A) (A)
                 (A) (A) (A) (A) (A) (A) (A) (A) (A) (A) (A)
 The electronic state of the initial guess is 1-A.
 Requested convergence on RMS density matrix=1.00D-08 within 128 cycles.
 Requested convergence on MAX density matrix=1.00D-06.
 Requested convergence on             energy=1.00D-06.
 No special actions if energy rises.
 SCF Done:  E(RM062X) =  -1162.13238984     A.U. after   14 cycles
             Convg  =    0.7050D-08             -V/T =  2.0018

 **********************************************************************

            Population analysis using the SCF density.

 **********************************************************************

 Orbital symmetries:
       Occupied  (A) (A) (A) (A) (A) (A) (A) (A) (A) (A) (A) (A)
                 (A) (A) (A) (A) (A) (A) (A) (A) (A) (A) (A) (A)
                 (A) (A) (A) (A) (A) (A) (A) (A) (A) (A) (A) (A)
                 (A) (A) (A) (A) (A) (A) (A) (A) (A) (A) (A) (A)
                 (A) (A) (A) (A) (A) (A) (A) (A) (A) (A) (A) (A)
                 (A) (A) (A) (A) (A) (A) (A)
       Virtual   (A) (A) (A) (A) (A) (A) (A) (A) (A) (A) (A) (A)
                 (A) (A) (A) (A) (A) (A) (A) (A) (A) (A) (A) (A)
                 (A) (A) (A) (A) (A) (A) (A) (A) (A) (A) (A) (A)
                 (A) (A) (A) (A) (A) (A) (A) (A) (A) (A) (A) (A)
                 (A) (A) (A) (A) (A) (A) (A) (A) (A) (A) (A) (A)
                 (A) (A) (A) (A) (A) (A) (A) (A) (A) (A) (A) (A)
                 (A) (A) (A) (A) (A) (A) (A) (A) (A) (A) (A) (A)
                 (A) (A) (A) (A) (A) (A) (A) (A) (A) (A) (A) (A)
                 (A) (A) (A) (A) (A) (A) (A) (A) (A) (A) (A) (A)
                 (A) (A) (A) (A) (A) (A) (A) (A) (A) (A) (A) (A)
                 (A) (A) (A) (A) (A) (A) (A) (A) (A) (A) (A) (A)
                 (A) (A) (A) (A) (A) (A) (A) (A) (A) (A) (A) (A)
                 (A) (A) (A) (A) (A) (A) (A) (A) (A) (A) (A) (A)
                 (A) (A) (A) (A) (A) (A) (A) (A) (A) (A) (A) (A)
                 (A) (A) (A) (A) (A) (A) (A) (A) (A) (A) (A) (A)
                 (A) (A) (A) (A) (A) (A) (A) (A) (A) (A) (A) (A)
                 (A) (A) (A) (A) (A) (A) (A) (A) (A) (A) (A) (A)
                 (A) (A) (A) (A) (A) (A) (A) (A) (A) (A) (A) (A)
                 (A) (A) (A) (A) (A) (A) (A) (A) (A) (A) (A) (A)
                 (A) (A) (A) (A) (A) (A) (A) (A) (A) (A) (A) (A)
                 (A) (A) (A) (A) (A) (A) (A) (A) (A) (A) (A) (A)
                 (A) (A) (A) (A) (A) (A) (A) (A) (A) (A) (A) (A)
                 (A) (A) (A) (A) (A) (A) (A) (A) (A) (A) (A) (A)
                 (A) (A) (A) (A) (A) (A) (A) (A) (A) (A) (A) (A)
                 (A) (A) (A) (A) (A) (A) (A) (A) (A) (A) (A) (A)
                 (A) (A) (A) (A) (A) (A) (A) (A) (A) (A) (A) (A)
                 (A) (A) (A) (A) (A) (A) (A) (A) (A) (A) (A) (A)
                 (A) (A) (A) (A) (A) (A) (A) (A) (A) (A) (A) (A)
                 (A) (A) (A) (A) (A) (A) (A) (A) (A) (A) (A)
 The electronic state is 1-A.
 Alpha  occ. eigenvalues --  -90.07354 -19.63506 -19.55280 -19.54303 -19.53377
 Alpha  occ. eigenvalues --  -14.86716 -14.86273 -10.65978 -10.62479 -10.61004
 Alpha  occ. eigenvalues --  -10.60614 -10.60298 -10.56495 -10.53022 -10.52982
 Alpha  occ. eigenvalues --  -10.50720  -8.40961  -6.33288  -6.33135  -6.33099
 Alpha  occ. eigenvalues --   -1.24242  -1.22561  -1.12299  -1.10561  -1.05653
 Alpha  occ. eigenvalues --   -1.04077  -0.94364  -0.91249  -0.88561  -0.84064
 Alpha  occ. eigenvalues --   -0.78801  -0.76937  -0.75327  -0.72792  -0.68032
 Alpha  occ. eigenvalues --   -0.67414  -0.65299  -0.62400  -0.58773  -0.58170
 Alpha  occ. eigenvalues --   -0.57096  -0.56071  -0.55944  -0.55326  -0.53976
 Alpha  occ. eigenvalues --   -0.53096  -0.52952  -0.51648  -0.50455  -0.50021
 Alpha  occ. eigenvalues --   -0.48825  -0.47113  -0.45911  -0.43960  -0.43522
 Alpha  occ. eigenvalues --   -0.42133  -0.40420  -0.40129  -0.38233  -0.36922
 Alpha  occ. eigenvalues --   -0.36638  -0.36334  -0.35731  -0.32109  -0.31476
 Alpha  occ. eigenvalues --   -0.30338  -0.27539
 Alpha virt. eigenvalues --   -0.02323  -0.00802   0.00021   0.00687   0.01643
 Alpha virt. eigenvalues --    0.02279   0.02531   0.02588   0.03820   0.04159
 Alpha virt. eigenvalues --    0.04447   0.04763   0.05710   0.05935   0.06714
 Alpha virt. eigenvalues --    0.07338   0.07585   0.07870   0.08546   0.08651
 Alpha virt. eigenvalues --    0.09046   0.09477   0.10494   0.10816   0.11438
 Alpha virt. eigenvalues --    0.11849   0.12644   0.12804   0.13053   0.13362
 Alpha virt. eigenvalues --    0.13780   0.14173   0.14864   0.15177   0.15853
 Alpha virt. eigenvalues --    0.16188   0.16530   0.16956   0.17133   0.17722
 Alpha virt. eigenvalues --    0.18316   0.18625   0.19325   0.19633   0.20279
 Alpha virt. eigenvalues --    0.20582   0.20863   0.21247   0.21316   0.21647
 Alpha virt. eigenvalues --    0.22246   0.22450   0.23252   0.23558   0.23900
 Alpha virt. eigenvalues --    0.24645   0.24852   0.25502   0.25838   0.26255
 Alpha virt. eigenvalues --    0.26702   0.26875   0.27008   0.27381   0.27909
 Alpha virt. eigenvalues --    0.28149   0.28985   0.29213   0.29849   0.30152
 Alpha virt. eigenvalues --    0.30400   0.30651   0.31892   0.32107   0.32597
 Alpha virt. eigenvalues --    0.33185   0.33676   0.34238   0.35231   0.36278
 Alpha virt. eigenvalues --    0.36562   0.37086   0.37299   0.37901   0.38218
 Alpha virt. eigenvalues --    0.39969   0.40714   0.41603   0.41916   0.42033
 Alpha virt. eigenvalues --    0.43105   0.44008   0.44499   0.44706   0.45135
 Alpha virt. eigenvalues --    0.46049   0.46404   0.47154   0.47752   0.48838
 Alpha virt. eigenvalues --    0.49367   0.49886   0.50862   0.51715   0.52072
 Alpha virt. eigenvalues --    0.53141   0.53881   0.55750   0.55920   0.57627
 Alpha virt. eigenvalues --    0.57980   0.58522   0.60151   0.60546   0.61584
 Alpha virt. eigenvalues --    0.61998   0.62436   0.63021   0.65480   0.65695
 Alpha virt. eigenvalues --    0.67675   0.68618   0.69146   0.69348   0.71099
 Alpha virt. eigenvalues --    0.71623   0.72258   0.72803   0.73421   0.73783
 Alpha virt. eigenvalues --    0.74044   0.74876   0.75235   0.76538   0.77089
 Alpha virt. eigenvalues --    0.77615   0.78490   0.78891   0.79803   0.80254
 Alpha virt. eigenvalues --    0.81847   0.82038   0.82656   0.84003   0.84729
 Alpha virt. eigenvalues --    0.85067   0.86882   0.87390   0.89287   0.92360
 Alpha virt. eigenvalues --    0.95591   0.97301   0.99298   1.00018   1.00337
 Alpha virt. eigenvalues --    1.02919   1.03746   1.05249   1.06152   1.07895
 Alpha virt. eigenvalues --    1.08378   1.10165   1.10871   1.12660   1.14799
 Alpha virt. eigenvalues --    1.16135   1.17531   1.18528   1.20057   1.21082
 Alpha virt. eigenvalues --    1.23523   1.24635   1.25536   1.26856   1.27286
 Alpha virt. eigenvalues --    1.28437   1.30028   1.31425   1.33302   1.33588
 Alpha virt. eigenvalues --    1.34554   1.35581   1.36256   1.38724   1.39550
 Alpha virt. eigenvalues --    1.40515   1.41979   1.43802   1.45696   1.48640
 Alpha virt. eigenvalues --    1.49999   1.51841   1.55375   1.58079   1.58625
 Alpha virt. eigenvalues --    1.59794   1.60470   1.61701   1.62521   1.63957
 Alpha virt. eigenvalues --    1.64773   1.66210   1.66700   1.67954   1.68997
 Alpha virt. eigenvalues --    1.70325   1.71995   1.73223   1.73969   1.75372
 Alpha virt. eigenvalues --    1.76903   1.78560   1.79632   1.80727   1.81910
 Alpha virt. eigenvalues --    1.83124   1.84331   1.85682   1.87546   1.88745
 Alpha virt. eigenvalues --    1.90019   1.91949   1.94864   1.96782   1.98663
 Alpha virt. eigenvalues --    1.99490   2.01676   2.02465   2.04454   2.07155
 Alpha virt. eigenvalues --    2.12474   2.17904   2.25138   2.28863   2.32446
 Alpha virt. eigenvalues --    2.35423   2.43582   2.45835   2.49020   2.49830
 Alpha virt. eigenvalues --    2.53234   2.53512   2.54452   2.57433   2.58061
 Alpha virt. eigenvalues --    2.58877   2.59843   2.60408   2.62017   2.62243
 Alpha virt. eigenvalues --    2.63310   2.64852   2.66098   2.67097   2.70112
 Alpha virt. eigenvalues --    2.74136   2.75295   2.76034   2.85650   2.89267
 Alpha virt. eigenvalues --    2.90642   2.91072   2.91484   2.92613   2.97033
 Alpha virt. eigenvalues --    2.98122   2.98826   2.99955   3.00849   3.01898
 Alpha virt. eigenvalues --    3.02792   3.04540   3.05001   3.05795   3.08502
 Alpha virt. eigenvalues --    3.10145   3.14793   3.16722   3.17260   3.18635
 Alpha virt. eigenvalues --    3.21088   3.22865   3.23758   3.25822   3.26290
 Alpha virt. eigenvalues --    3.28867   3.29120   3.29785   3.30661   3.34204
 Alpha virt. eigenvalues --    3.35487   3.37446   3.38948   3.40709   3.43685
 Alpha virt. eigenvalues --    3.49014   3.53689   3.59189   3.60543   3.64326
 Alpha virt. eigenvalues --    3.65074   3.69870   3.74913   3.79757   3.81003
 Alpha virt. eigenvalues --    3.95265   3.96910   3.99144   4.02748   4.05964
 Alpha virt. eigenvalues --    4.11872   4.73742   4.86297   4.92330   5.17481
 Alpha virt. eigenvalues --    5.17946   5.23459   5.23635   5.26120   5.26822
 Alpha virt. eigenvalues --    5.31203   5.31778   5.38487   5.39409   5.48963
 Alpha virt. eigenvalues --    5.55038   5.58455   8.44503  17.61845  17.68209
 Alpha virt. eigenvalues --   17.69990  23.58625  23.60337  23.66274  23.70375
 Alpha virt. eigenvalues --   23.77242  23.80723  23.84133  23.99232  24.23966
 Alpha virt. eigenvalues --   35.54752  35.72097  50.01548  50.08347  50.10377
 Alpha virt. eigenvalues --   50.13096 189.69262
          Condensed to atoms (all electrons):
              1          2          3          4          5          6
     1  C    8.182827  -1.831380  -0.132458  -0.055730   0.367585   0.032295
     2  C   -1.831380   8.232335  -0.120161   0.275147   0.025889   0.358845
     3  C   -0.132458  -0.120161   6.550886   0.189358  -0.004343   0.003910
     4  N   -0.055730   0.275147   0.189358   6.968640  -0.085712   0.021919
     5  H    0.367585   0.025889  -0.004343  -0.085712   0.395041  -0.003155
     6  H    0.032295   0.358845   0.003910   0.021919  -0.003155   0.381338
     7  H    0.001648   0.010752   0.386708  -0.043095  -0.000014  -0.000057
     8  N    0.421041  -0.271983   0.099084  -0.400272   0.036470  -0.059848
     9  C    0.009135  -0.174095  -0.243265  -0.117225  -0.000775  -0.004357
    10  H    0.039936   0.021268  -0.006747  -0.005992   0.000034  -0.000348
    11  H   -0.021672   0.008848  -0.014446  -0.012167   0.000042  -0.000383
    12  H   -0.000840  -0.014763   0.075330   0.019940   0.000021  -0.000111
    13  C   -0.003439  -0.310364  -0.368694  -0.245961  -0.041671  -0.001962
    14  H   -0.016560  -0.001859   0.061667  -0.075495  -0.000322   0.000014
    15  H    0.024405   0.009516  -0.031774  -0.081607   0.000217  -0.000006
    16  C   -0.213170   0.243758   0.022860   0.232464   0.027884  -0.002806
    17  H    0.021321  -0.027589   0.047894  -0.002299  -0.000949   0.000051
    18  H    0.068626  -0.041139   0.004596  -0.008607   0.000053   0.000025
    19  C   -0.421953   0.247977  -0.313863   0.002871   0.003041  -0.000787
    20  H   -0.001160  -0.000864   0.011529   0.000025  -0.000010   0.000000
    21  H    0.008222  -0.001555  -0.003747  -0.001409   0.000016   0.000000
    22  C    0.014592  -0.017622  -0.010653  -0.024317   0.000301   0.000037
    23  H    0.000201   0.000317  -0.001827   0.000424   0.000002   0.000000
    24  H    0.000231  -0.000113  -0.000028   0.000186  -0.000001   0.000000
    25  H   -0.001375   0.000464   0.002005   0.000340   0.000008   0.000000
    26  S    0.033321  -0.103686  -0.099573   0.054231   0.003011  -0.001874
    27  O    0.033456  -0.067948  -0.041929   0.011190  -0.000007   0.000472
    28  O   -0.132449  -0.152491   0.076278  -0.070441  -0.006859  -0.013428
    29  O   -0.286741   0.225669  -0.018993   0.042285   0.000278  -0.000689
    30  O    0.004875   0.028067   0.096555  -0.015024  -0.000086  -0.000409
    31  C    0.044222  -0.071982  -0.016306   0.000756  -0.000195   0.001150
    32  H   -0.012455   0.006274   0.014089  -0.000756   0.000055  -0.000239
    33  H   -0.000115   0.001220   0.002008  -0.000167   0.000000  -0.000006
    34  H    0.001456  -0.001214  -0.003722   0.000107  -0.000004   0.000027
              7          8          9         10         11         12
     1  C    0.001648   0.421041   0.009135   0.039936  -0.021672  -0.000840
     2  C    0.010752  -0.271983  -0.174095   0.021268   0.008848  -0.014763
     3  C    0.386708   0.099084  -0.243265  -0.006747  -0.014446   0.075330
     4  N   -0.043095  -0.400272  -0.117225  -0.005992  -0.012167   0.019940
     5  H   -0.000014   0.036470  -0.000775   0.000034   0.000042   0.000021
     6  H   -0.000057  -0.059848  -0.004357  -0.000348  -0.000383  -0.000111
     7  H    0.381080  -0.027668  -0.008818   0.000169   0.000662   0.002443
     8  N   -0.027668   7.155532   0.086423  -0.068088  -0.062619  -0.073237
     9  C   -0.008818   0.086423   6.289674   0.349588   0.446119   0.330484
    10  H    0.000169  -0.068088   0.349588   0.418880  -0.024419  -0.014266
    11  H    0.000662  -0.062619   0.446119  -0.024419   0.417297  -0.025704
    12  H    0.002443  -0.073237   0.330484  -0.014266  -0.025704   0.407227
    13  C   -0.014042  -0.217825  -0.133798   0.004863  -0.003748   0.008078
    14  H    0.001362   0.004189   0.003184  -0.000002  -0.000015   0.000011
    15  H   -0.000177  -0.011851  -0.000946  -0.000003  -0.000007   0.000006
    16  C    0.027214   0.056987  -0.025665   0.000454   0.001276   0.000227
    17  H   -0.000142   0.001521   0.001506  -0.000004  -0.000001  -0.000006
    18  H    0.000294   0.007148   0.003090  -0.000001  -0.000005  -0.000017
    19  C    0.000350  -0.053980  -0.027453   0.000172   0.000055   0.000134
    20  H    0.000016  -0.000061   0.000003   0.000000   0.000000   0.000000
    21  H   -0.000006   0.000194   0.000038   0.000000   0.000000   0.000000
    22  C    0.000773   0.006392   0.001031  -0.000004   0.000000   0.000011
    23  H    0.000006   0.000056  -0.000006   0.000000   0.000000   0.000000
    24  H   -0.000001  -0.000014  -0.000005   0.000000   0.000000   0.000000
    25  H   -0.000001  -0.000048   0.000005   0.000000   0.000000   0.000000
    26  S    0.005900   0.159693   0.016741  -0.001508   0.001041   0.000684
    27  O    0.000190   0.015087   0.000812   0.000212  -0.000007   0.000055
    28  O   -0.001967  -0.138953  -0.043776   0.003990  -0.000537  -0.000240
    29  O   -0.001504  -0.050172  -0.025792  -0.000099   0.000067   0.000164
    30  O   -0.001524  -0.051969   0.020784  -0.000460  -0.000186  -0.001142
    31  C    0.001056   0.030646  -0.008367   0.000929  -0.000375   0.003197
    32  H   -0.000005   0.003257  -0.015786   0.004624   0.000801  -0.000190
    33  H   -0.000017  -0.001534   0.000421  -0.000155  -0.000022  -0.000057
    34  H    0.000002   0.000959   0.005316  -0.000226  -0.000014  -0.000101
             13         14         15         16         17         18
     1  C   -0.003439  -0.016560   0.024405  -0.213170   0.021321   0.068626
     2  C   -0.310364  -0.001859   0.009516   0.243758  -0.027589  -0.041139
     3  C   -0.368694   0.061667  -0.031774   0.022860   0.047894   0.004596
     4  N   -0.245961  -0.075495  -0.081607   0.232464  -0.002299  -0.008607
     5  H   -0.041671  -0.000322   0.000217   0.027884  -0.000949   0.000053
     6  H   -0.001962   0.000014  -0.000006  -0.002806   0.000051   0.000025
     7  H   -0.014042   0.001362  -0.000177   0.027214  -0.000142   0.000294
     8  N   -0.217825   0.004189  -0.011851   0.056987   0.001521   0.007148
     9  C   -0.133798   0.003184  -0.000946  -0.025665   0.001506   0.003090
    10  H    0.004863  -0.000002  -0.000003   0.000454  -0.000004  -0.000001
    11  H   -0.003748  -0.000015  -0.000007   0.001276  -0.000001  -0.000005
    12  H    0.008078   0.000011   0.000006   0.000227  -0.000006  -0.000017
    13  C    9.382066   0.343165   0.415028  -2.013060  -0.041627  -0.064258
    14  H    0.343165   0.433830  -0.024153   0.048458   0.004447  -0.001225
    15  H    0.415028  -0.024153   0.421148   0.009973  -0.002606   0.004300
    16  C   -2.013060   0.048458   0.009973   8.816865   0.473186   0.492432
    17  H   -0.041627   0.004447  -0.002606   0.473186   0.400833  -0.001252
    18  H   -0.064258  -0.001225   0.004300   0.492432  -0.001252   0.411398
    19  C    0.735659  -0.065183  -0.024541  -2.607529  -0.208788  -0.203789
    20  H   -0.038918   0.002513   0.000452   0.044103   0.006835  -0.002453
    21  H   -0.018878   0.000178   0.002135  -0.010614  -0.002816   0.006320
    22  C   -0.156310   0.008392   0.008250   0.294143   0.024504   0.023984
    23  H   -0.002057   0.000094  -0.000011  -0.056871  -0.000467   0.003036
    24  H    0.014500  -0.000064  -0.000053   0.084683  -0.000412  -0.000626
    25  H   -0.004466  -0.000005   0.000131  -0.037706   0.003490   0.000277
    26  S   -0.187760   0.002534  -0.000457   0.103965   0.024080   0.055505
    27  O   -0.019480   0.000011  -0.000021   0.015109  -0.004302   0.000912
    28  O    0.061131  -0.002098   0.000223  -0.062181  -0.003905  -0.006839
    29  O    0.118667  -0.000822   0.000062  -0.005382  -0.027636  -0.066271
    30  O   -0.000749   0.000010   0.000044  -0.044249   0.001960   0.000521
    31  C    0.001371  -0.000004  -0.000001   0.002399   0.000602   0.001014
    32  H    0.001004  -0.000002  -0.000001   0.001477  -0.000028  -0.000048
    33  H    0.000024   0.000000   0.000000  -0.000234   0.000001   0.000002
    34  H   -0.000387   0.000000   0.000000  -0.000484   0.000004   0.000008
             19         20         21         22         23         24
     1  C   -0.421953  -0.001160   0.008222   0.014592   0.000201   0.000231
     2  C    0.247977  -0.000864  -0.001555  -0.017622   0.000317  -0.000113
     3  C   -0.313863   0.011529  -0.003747  -0.010653  -0.001827  -0.000028
     4  N    0.002871   0.000025  -0.001409  -0.024317   0.000424   0.000186
     5  H    0.003041  -0.000010   0.000016   0.000301   0.000002  -0.000001
     6  H   -0.000787   0.000000   0.000000   0.000037   0.000000   0.000000
     7  H    0.000350   0.000016  -0.000006   0.000773   0.000006  -0.000001
     8  N   -0.053980  -0.000061   0.000194   0.006392   0.000056  -0.000014
     9  C   -0.027453   0.000003   0.000038   0.001031  -0.000006  -0.000005
    10  H    0.000172   0.000000   0.000000  -0.000004   0.000000   0.000000
    11  H    0.000055   0.000000   0.000000   0.000000   0.000000   0.000000
    12  H    0.000134   0.000000   0.000000   0.000011   0.000000   0.000000
    13  C    0.735659  -0.038918  -0.018878  -0.156310  -0.002057   0.014500
    14  H   -0.065183   0.002513   0.000178   0.008392   0.000094  -0.000064
    15  H   -0.024541   0.000452   0.002135   0.008250  -0.000011  -0.000053
    16  C   -2.607529   0.044103  -0.010614   0.294143  -0.056871   0.084683
    17  H   -0.208788   0.006835  -0.002816   0.024504  -0.000467  -0.000412
    18  H   -0.203789  -0.002453   0.006320   0.023984   0.003036  -0.000626
    19  C    9.404321   0.331702   0.370179  -0.493225   0.026870  -0.108947
    20  H    0.331702   0.477046  -0.041593  -0.031382  -0.007975  -0.004098
    21  H    0.370179  -0.041593   0.473969  -0.025414   0.006374  -0.004101
    22  C   -0.493225  -0.031382  -0.025414   6.276421   0.377061   0.362389
    23  H    0.026870  -0.007975   0.006374   0.377061   0.432941  -0.028466
    24  H   -0.108947  -0.004098  -0.004101   0.362389  -0.028466   0.452703
    25  H    0.009928   0.006489  -0.007751   0.372610  -0.027218  -0.027310
    26  S   -0.206707   0.000630   0.000362  -0.003597   0.000699  -0.000338
    27  O    0.008489   0.000000  -0.000020  -0.003924   0.000050  -0.000001
    28  O    0.019447  -0.000080   0.000023   0.003452  -0.000067   0.000007
    29  O    0.152847  -0.000249  -0.000196  -0.014870  -0.002272   0.000417
    30  O   -0.009492   0.000008   0.000005  -0.000014  -0.000054   0.000001
    31  C   -0.001613   0.000018   0.000006   0.001500  -0.000010  -0.000002
    32  H    0.000203   0.000000   0.000000  -0.000041   0.000000   0.000000
    33  H   -0.000007   0.000000   0.000000   0.000000   0.000000   0.000000
    34  H   -0.000092   0.000000   0.000000   0.000008   0.000000   0.000000
             25         26         27         28         29         30
     1  C   -0.001375   0.033321   0.033456  -0.132449  -0.286741   0.004875
     2  C    0.000464  -0.103686  -0.067948  -0.152491   0.225669   0.028067
     3  C    0.002005  -0.099573  -0.041929   0.076278  -0.018993   0.096555
     4  N    0.000340   0.054231   0.011190  -0.070441   0.042285  -0.015024
     5  H    0.000008   0.003011  -0.000007  -0.006859   0.000278  -0.000086
     6  H    0.000000  -0.001874   0.000472  -0.013428  -0.000689  -0.000409
     7  H   -0.000001   0.005900   0.000190  -0.001967  -0.001504  -0.001524
     8  N   -0.000048   0.159693   0.015087  -0.138953  -0.050172  -0.051969
     9  C    0.000005   0.016741   0.000812  -0.043776  -0.025792   0.020784
    10  H    0.000000  -0.001508   0.000212   0.003990  -0.000099  -0.000460
    11  H    0.000000   0.001041  -0.000007  -0.000537   0.000067  -0.000186
    12  H    0.000000   0.000684   0.000055  -0.000240   0.000164  -0.001142
    13  C   -0.004466  -0.187760  -0.019480   0.061131   0.118667  -0.000749
    14  H   -0.000005   0.002534   0.000011  -0.002098  -0.000822   0.000010
    15  H    0.000131  -0.000457  -0.000021   0.000223   0.000062   0.000044
    16  C   -0.037706   0.103965   0.015109  -0.062181  -0.005382  -0.044249
    17  H    0.003490   0.024080  -0.004302  -0.003905  -0.027636   0.001960
    18  H    0.000277   0.055505   0.000912  -0.006839  -0.066271   0.000521
    19  C    0.009928  -0.206707   0.008489   0.019447   0.152847  -0.009492
    20  H    0.006489   0.000630   0.000000  -0.000080  -0.000249   0.000008
    21  H   -0.007751   0.000362  -0.000020   0.000023  -0.000196   0.000005
    22  C    0.372610  -0.003597  -0.003924   0.003452  -0.014870  -0.000014
    23  H   -0.027218   0.000699   0.000050  -0.000067  -0.002272  -0.000054
    24  H   -0.027310  -0.000338  -0.000001   0.000007   0.000417   0.000001
    25  H    0.429115   0.001188  -0.000025  -0.000243  -0.001699   0.000032
    26  S    0.001188  16.835707   0.200861  -0.332720  -0.262178  -0.312617
    27  O   -0.000025   0.200861   8.734111   0.102627  -0.508892  -0.221888
    28  O   -0.000243  -0.332720   0.102627   9.464948  -0.421368   0.007667
    29  O   -0.001699  -0.262178  -0.508892  -0.421368   9.440562   0.023893
    30  O    0.000032  -0.312617  -0.221888   0.007667   0.023893   8.820294
    31  C   -0.000018  -0.301596   0.081855   0.138737  -0.072015  -0.133587
    32  H    0.000000   0.002199   0.003021  -0.014187   0.001191  -0.049848
    33  H    0.000000   0.008349  -0.004671  -0.004707   0.003012  -0.058843
    34  H    0.000000  -0.044046   0.012233   0.019429  -0.006578  -0.036798
             31         32         33         34
     1  C    0.044222  -0.012455  -0.000115   0.001456
     2  C   -0.071982   0.006274   0.001220  -0.001214
     3  C   -0.016306   0.014089   0.002008  -0.003722
     4  N    0.000756  -0.000756  -0.000167   0.000107
     5  H   -0.000195   0.000055   0.000000  -0.000004
     6  H    0.001150  -0.000239  -0.000006   0.000027
     7  H    0.001056  -0.000005  -0.000017   0.000002
     8  N    0.030646   0.003257  -0.001534   0.000959
     9  C   -0.008367  -0.015786   0.000421   0.005316
    10  H    0.000929   0.004624  -0.000155  -0.000226
    11  H   -0.000375   0.000801  -0.000022  -0.000014
    12  H    0.003197  -0.000190  -0.000057  -0.000101
    13  C    0.001371   0.001004   0.000024  -0.000387
    14  H   -0.000004  -0.000002   0.000000   0.000000
    15  H   -0.000001  -0.000001   0.000000   0.000000
    16  C    0.002399   0.001477  -0.000234  -0.000484
    17  H    0.000602  -0.000028   0.000001   0.000004
    18  H    0.001014  -0.000048   0.000002   0.000008
    19  C   -0.001613   0.000203  -0.000007  -0.000092
    20  H    0.000018   0.000000   0.000000   0.000000
    21  H    0.000006   0.000000   0.000000   0.000000
    22  C    0.001500  -0.000041   0.000000   0.000008
    23  H   -0.000010   0.000000   0.000000   0.000000
    24  H   -0.000002   0.000000   0.000000   0.000000
    25  H   -0.000018   0.000000   0.000000   0.000000
    26  S   -0.301596   0.002199   0.008349  -0.044046
    27  O    0.081855   0.003021  -0.004671   0.012233
    28  O    0.138737  -0.014187  -0.004707   0.019429
    29  O   -0.072015   0.001191   0.003012  -0.006578
    30  O   -0.133587  -0.049848  -0.058843  -0.036798
    31  C    5.888063   0.351320   0.403871   0.412306
    32  H    0.351320   0.556275  -0.036986  -0.051517
    33  H    0.403871  -0.036986   0.449930  -0.023331
    34  H    0.412306  -0.051517  -0.023331   0.415108
 Mulliken atomic charges:
              1
     1  C   -0.177901
     2  C   -0.485538
     3  C   -0.212230
     4  N    0.426396
     5  H    0.284155
     6  H    0.290382
     7  H    0.278413
     8  N    0.405446
     9  C   -0.734224
    10  H    0.277201
    11  H    0.290121
    12  H    0.282663
    13  C   -1.196101
    14  H    0.273748
    15  H    0.282327
    16  C    0.080030
    17  H    0.312592
    18  H    0.312988
    19  C   -0.566293
    20  H    0.247475
    21  H    0.250080
    22  C   -0.994481
    23  H    0.279169
    24  H    0.259464
    25  H    0.281780
    26  S    0.347958
    27  O   -0.347637
    28  O   -0.488425
    29  O   -0.234694
    30  O   -0.065777
    31  C   -0.758949
    32  H    0.236298
    33  H    0.262016
    34  H    0.301551
 Sum of Mulliken atomic charges =   0.00000
 Mulliken charges with hydrogens summed into heavy atoms:
              1
     1  C    0.106253
     2  C   -0.195156
     3  C    0.066183
     4  N    0.426396
     8  N    0.405446
     9  C    0.115761
    13  C   -0.640027
    16  C    0.705610
    19  C   -0.068738
    22  C   -0.174068
    26  S    0.347958
    27  O   -0.347637
    28  O   -0.488425
    29  O   -0.234694
    30  O   -0.065777
    31  C    0.040916
 Sum of Mulliken charges with hydrogens summed into heavy atoms =   0.00000
 Electronic spatial extent (au):  <R**2>=           4362.1272
 Charge=              0.0000 electrons
 Dipole moment (field-independent basis, Debye):
    X=             -0.3042    Y=             12.8697    Z=             -2.6848  Tot=             13.1503
 Quadrupole moment (field-independent basis, Debye-Ang):
   XX=            -85.0917   YY=           -111.0233   ZZ=           -101.3152
   XY=             -7.7333   XZ=              6.7007   YZ=              1.7146
 Traceless Quadrupole moment (field-independent basis, Debye-Ang):
   XX=             14.0517   YY=            -11.8799   ZZ=             -2.1718
   XY=             -7.7333   XZ=              6.7007   YZ=              1.7146
 Octapole moment (field-independent basis, Debye-Ang**2):
  XXX=            -59.4650  YYY=             52.7246  ZZZ=              0.0638  XYY=            -13.7472
  XXY=             21.2599  XXZ=             -9.9303  XZZ=              0.7932  YZZ=             27.6961
  YYZ=            -22.3911  XYZ=             -5.0433
 Hexadecapole moment (field-independent basis, Debye-Ang**3):
 XXXX=          -3109.1941 YYYY=          -2133.8300 ZZZZ=           -469.8106 XXXY=              2.3972
 XXXZ=             48.6882 YYYX=            -57.8239 YYYZ=             -4.9230 ZZZX=             18.0988
 ZZZY=              9.5430 XXYY=           -829.4915 XXZZ=           -614.6589 YYZZ=           -424.9873
 XXYZ=              7.2945 YYXZ=             37.5846 ZZXY=            -22.3002
 N-N= 1.426302946089D+03 E-N=-5.585899469846D+03  KE= 1.159990456315D+03
 Calling FoFJK, ICntrl=      2127 FMM=F ISym2X=0 I1Cent= 0 IOpClX= 0 NMat=1 NMatS=1 NMatT=0.
 ***** Axes restored to original set *****
 -------------------------------------------------------------------
 Center     Atomic                   Forces (Hartrees/Bohr)
 Number     Number              X              Y              Z
 -------------------------------------------------------------------
      1        6           0.011423517   -0.019161780   -0.027982761
      2        6           0.012956818   -0.017466933   -0.030929001
      3        6          -0.013470918    0.031677398    0.025307539
      4        7          -0.037293291    0.011906900   -0.022382431
      5        1          -0.009193299   -0.000984014   -0.000569772
      6        1           0.006782782   -0.000517633    0.005882680
      7        1          -0.001782443    0.004258318    0.003392055
      8        7           0.047399252    0.009744916    0.015354777
      9        6          -0.014590347   -0.003133826   -0.009218647
     10        1           0.004241439   -0.011148223    0.002979015
     11        1           0.007690898    0.008233934   -0.008326473
     12        1          -0.004757612    0.004772563    0.011129778
     13        6          -0.006173576   -0.018616449    0.029280057
     14        1           0.002882806    0.015201879   -0.001851051
     15        1           0.002112274   -0.003248395   -0.014897289
     16        6          -0.013504811    0.021108851   -0.026597380
     17        1           0.004529938   -0.013797871    0.004327346
     18        1           0.005715314   -0.000874522    0.013407242
     19        6           0.011652416   -0.019081357    0.023659575
     20        1          -0.003266403    0.017214428   -0.002232113
     21        1          -0.005713755   -0.002412769   -0.016403678
     22        6           0.011843558    0.012679301   -0.019484272
     23        1           0.002493503    0.001944249    0.014463305
     24        1          -0.015494387    0.001795872    0.000204209
     25        1           0.000444807   -0.014541613    0.002413731
     26       16          -0.060819692   -0.051128681   -0.020802576
     27        8           0.019909634    0.009055033    0.019209787
     28        8           0.020783115    0.008401026    0.021924711
     29        8           0.016456697    0.021530264    0.023227368
     30        8          -0.002176502   -0.002397911   -0.015883969
     31        6          -0.011529553    0.002511326    0.002041227
     32        1           0.008238894    0.002772421   -0.013736661
     33        1           0.001493024    0.008722693    0.011801308
     34        1           0.000715901   -0.015019396    0.001292364
 -------------------------------------------------------------------
 Cartesian Forces:  Max     0.060819692 RMS     0.016472380

 GradGradGradGradGradGradGradGradGradGradGradGradGradGradGradGradGradGrad
 Berny optimization.
 Internal  Forces:  Max     0.029698569 RMS     0.006448878
 Search for a local minimum.
 Step number   1 out of a maximum of  204
 All quantities printed in internal units (Hartrees-Bohrs-Radians)
 Mixed Optimization -- RFO/linear search
 Second derivative matrix not updated -- first step.
     Eigenvalues ---    0.00237   0.00237   0.00555   0.00766   0.01158
     Eigenvalues ---    0.01295   0.01693   0.02234   0.02259   0.02302
     Eigenvalues ---    0.02538   0.02649   0.02721   0.02968   0.03080
     Eigenvalues ---    0.03186   0.03367   0.03423   0.04005   0.04086
     Eigenvalues ---    0.04311   0.04345   0.04654   0.04702   0.04870
     Eigenvalues ---    0.05146   0.05243   0.05720   0.05720   0.05962
     Eigenvalues ---    0.06065   0.06065   0.06955   0.07203   0.07424
     Eigenvalues ---    0.07787   0.08021   0.08148   0.08583   0.10344
     Eigenvalues ---    0.10344   0.10620   0.10965   0.11279   0.12280
     Eigenvalues ---    0.12526   0.13908   0.14939   0.16000   0.16000
     Eigenvalues ---    0.16000   0.16000   0.16000   0.16000   0.16000
     Eigenvalues ---    0.16000   0.16000   0.17044   0.19473   0.20314
     Eigenvalues ---    0.21928   0.22821   0.25000   0.27867   0.28519
     Eigenvalues ---    0.28519   0.28917   0.30169   0.31649   0.33770
     Eigenvalues ---    0.34593   0.35740   0.37230   0.37230   0.37230
     Eigenvalues ---    0.37230   0.37230   0.37230   0.37230   0.37230
     Eigenvalues ---    0.37230   0.37230   0.37230   0.37230   0.37230
     Eigenvalues ---    0.37230   0.37977   0.39757   0.40658   0.40989
     Eigenvalues ---    0.49086   0.52646   0.57913   0.82440   0.84552
     Eigenvalues ---    0.876941000.000001000.000001000.000001000.00000
     Eigenvalues --- 1000.000001000.000001000.000001000.000001000.00000
     Eigenvalues --- 1000.000001000.000001000.000001000.000001000.00000
     Eigenvalues --- 1000.000001000.000001000.000001000.000001000.00000
     Eigenvalues --- 1000.000001000.000001000.000001000.000001000.00000
     Eigenvalues --- 1000.000001000.000001000.000001000.000001000.00000
     Eigenvalues --- 1000.000001000.000001000.000001000.000001000.00000
     Eigenvalues --- 1000.000001000.000001000.000001000.000001000.00000
     Eigenvalues --- 1000.000001000.000001000.000001000.000001000.00000
     Eigenvalues --- 1000.000001000.000001000.000001000.000001000.00000
     Eigenvalues --- 1000.000001000.000001000.000001000.000001000.00000
     Eigenvalues --- 1000.000001000.000001000.000001000.000001000.00000
     Eigenvalues --- 1000.000001000.000001000.000001000.000001000.00000
     Eigenvalues --- 1000.000001000.000001000.000001000.000001000.00000
     Eigenvalues --- 1000.000001000.000001000.000001000.000001000.00000
     Eigenvalues --- 1000.000001000.000001000.000001000.000001000.00000
     Eigenvalues --- 1000.000001000.000001000.000001000.000001000.00000
     Eigenvalues --- 1000.000001000.000001000.000001000.000001000.00000
     Eigenvalues --- 1000.000001000.000001000.000001000.000001000.00000
     Eigenvalues --- 1000.000001000.000001000.000001000.000001000.00000
     Eigenvalues --- 1000.000001000.000001000.000001000.000001000.00000
[...]
     8  N    0.164342   0.471256  -0.698827  -0.156580   0.027970  -0.082225
     9  C    0.140864  -0.261109  -0.123349  -0.089555   0.001296  -0.008098
    10  H   -0.000803   0.022777  -0.047770   0.011455  -0.000022   0.001287
    11  H    0.031688  -0.058353   0.023486  -0.013401   0.000022   0.000341
    12  H   -0.008241   0.011762   0.027853   0.014211   0.000009  -0.000072
    13  C   -0.372512   0.039255  -0.100017  -0.303866  -0.031849  -0.000305
    14  H   -0.015587   0.005212  -0.005831  -0.031184  -0.000312   0.000019
    15  H   -0.012605   0.013357   0.011484  -0.112281   0.002097   0.000051
    16  C    0.118168   0.150128  -0.281850   0.268153   0.023064   0.001715
    17  H    0.016085  -0.003709   0.017701   0.038573  -0.000359   0.000014
    18  H    0.003556  -0.002115  -0.025674  -0.026159   0.000061  -0.000001
    19  C   -0.107113   0.050069  -0.412596  -0.013808   0.001216   0.000322
    20  H   -0.000495   0.000556   0.025751   0.001756  -0.000011   0.000000
    21  H    0.003098  -0.001545  -0.015993  -0.003437   0.000053   0.000000
    22  C   -0.018891   0.011872  -0.009286  -0.024083   0.000528  -0.000033
    23  H    0.001145  -0.000156  -0.007894   0.001259   0.000000   0.000000
    24  H    0.000006  -0.000037   0.000171   0.000075   0.000000   0.000000
    25  H   -0.000721   0.000107   0.005138  -0.000444  -0.000002   0.000000
    26  S   -0.016345   0.040536  -0.325474   0.074633  -0.000783  -0.000312
    27  O   -0.021653   0.045204  -0.080136  -0.021027   0.000094  -0.000204
    28  O    0.112889  -0.039154  -0.247084   0.015065   0.001210   0.001391
    29  O    0.047715  -0.087159   0.268602  -0.027737   0.000026   0.000831
    30  O    0.007736  -0.011354   0.031530   0.017110  -0.000019   0.000096
    31  C   -0.007113   0.017900  -0.062478   0.004100   0.000061  -0.000055
    32  H   -0.000210  -0.000317  -0.001239  -0.000551   0.000002  -0.000006
    33  H    0.000381  -0.000492   0.000671   0.000022   0.000000   0.000000
    34  H    0.000101   0.000128  -0.000786   0.000136   0.000000   0.000000
              7          8          9         10         11         12
     1  C   -0.000735   0.164342   0.140864  -0.000803   0.031688  -0.008241
     2  C    0.046829   0.471256  -0.261109   0.022777  -0.058353   0.011762
     3  C    0.141284  -0.698827  -0.123349  -0.047770   0.023486   0.027853
     4  N    0.022174  -0.156580  -0.089555   0.011455  -0.013401   0.014211
     5  H    0.000003   0.027970   0.001296  -0.000022   0.000022   0.000009
     6  H   -0.000023  -0.082225  -0.008098   0.001287   0.000341  -0.000072
     7  H    0.359704   0.015393  -0.005348   0.000505   0.000203   0.003622
     8  N    0.015393   7.000746   0.046231  -0.025707  -0.065108  -0.066402
     9  C   -0.005348   0.046231   5.989396   0.374084   0.411914   0.370178
    10  H    0.000505  -0.025707   0.374084   0.361627  -0.030804  -0.015434
    11  H    0.000203  -0.065108   0.411914  -0.030804   0.446333  -0.013193
    12  H    0.003622  -0.066402   0.370178  -0.015434  -0.013193   0.385024
    13  C   -0.012868  -0.176059  -0.046237  -0.001458  -0.001184   0.007452
    14  H    0.000733  -0.009029  -0.001741   0.000015  -0.000010  -0.000004
    15  H   -0.000017  -0.009575  -0.000988   0.000004  -0.000003   0.000004
    16  C    0.040097   0.109848  -0.020679   0.007557  -0.003103   0.002141
    17  H    0.000253  -0.000906   0.002513  -0.000069   0.000006   0.000001
    18  H    0.002893   0.009392   0.000775  -0.000048   0.000006   0.000047
    19  C    0.015011  -0.034970  -0.025140   0.001278  -0.000236   0.000667
    20  H   -0.000167  -0.000260   0.000134   0.000000   0.000000   0.000000
    21  H    0.000045   0.000499   0.000025   0.000000   0.000000   0.000000
    22  C    0.001064   0.005431   0.000025  -0.000051  -0.000005   0.000020
    23  H    0.000075   0.000124   0.000069   0.000000   0.000000   0.000000
    24  H   -0.000002  -0.000018  -0.000014   0.000000   0.000000   0.000000
    25  H   -0.000003  -0.000104  -0.000009   0.000000   0.000000   0.000000
    26  S    0.021001   0.031578   0.001106  -0.043581   0.009341  -0.005633
    27  O    0.001871   0.047497   0.032286  -0.006203   0.000134  -0.000052
    28  O    0.003575   0.065426   0.036550   0.008918  -0.000794  -0.002588
    29  O   -0.021486  -0.075225  -0.061100   0.003022   0.002642  -0.008895
    30  O    0.001679  -0.022041  -0.037838   0.021630  -0.001186   0.002714
    31  C    0.000867   0.011211   0.008534   0.001829  -0.000557   0.000656
    32  H    0.000011   0.000372   0.002005  -0.000053   0.000007  -0.000006
    33  H   -0.000001  -0.000095  -0.000648   0.000096  -0.000001   0.000004
    34  H    0.000001  -0.000107  -0.000106  -0.000015   0.000000   0.000001
             13         14         15         16         17         18
     1  C   -0.372512  -0.015587  -0.012605   0.118168   0.016085   0.003556
     2  C    0.039255   0.005212   0.013357   0.150128  -0.003709  -0.002115
     3  C   -0.100017  -0.005831   0.011484  -0.281850   0.017701  -0.025674
     4  N   -0.303866  -0.031184  -0.112281   0.268153   0.038573  -0.026159
     5  H   -0.031849  -0.000312   0.002097   0.023064  -0.000359   0.000061
     6  H   -0.000305   0.000019   0.000051   0.001715   0.000014  -0.000001
     7  H   -0.012868   0.000733  -0.000017   0.040097   0.000253   0.002893
     8  N   -0.176059  -0.009029  -0.009575   0.109848  -0.000906   0.009392
     9  C   -0.046237  -0.001741  -0.000988  -0.020679   0.002513   0.000775
    10  H   -0.001458   0.000015   0.000004   0.007557  -0.000069  -0.000048
    11  H   -0.001184  -0.000010  -0.000003  -0.003103   0.000006   0.000006
    12  H    0.007452  -0.000004   0.000004   0.002141   0.000001   0.000047
    13  C    9.558301   0.389389   0.385370  -2.049669  -0.148688  -0.058831
    14  H    0.389389   0.410223  -0.024426   0.017801   0.004206  -0.005189
    15  H    0.385370  -0.024426   0.446878   0.013572  -0.002409   0.005571
    16  C   -2.049669   0.017801   0.013572   9.132975   0.567422   0.412622
    17  H   -0.148688   0.004206  -0.002409   0.567422   0.397367  -0.015706
    18  H   -0.058831  -0.005189   0.005571   0.412622  -0.015706   0.449963
    19  C    0.396293  -0.039656   0.010241  -2.864161  -0.215140  -0.089359
    20  H   -0.068755   0.003220   0.000374   0.146462   0.006812  -0.006325
    21  H    0.009206  -0.000683   0.001488  -0.130680  -0.005784   0.007568
    22  C   -0.154982   0.004749   0.009092   0.360336   0.010853   0.034589
    23  H    0.007745   0.000026  -0.000043  -0.070164  -0.000211   0.004161
    24  H    0.010369  -0.000032  -0.000032   0.076802  -0.000434  -0.000537
    25  H   -0.006215   0.000026   0.000131  -0.014036   0.003461  -0.000098
    26  S   -0.086036   0.005242   0.001194  -0.215326  -0.001447  -0.004372
    27  O    0.109837  -0.000336  -0.000423   0.016794   0.010746   0.019575
    28  O   -0.058707  -0.000868  -0.001038   0.043404   0.004787  -0.016632
    29  O   -0.034473  -0.000070   0.000197   0.002382  -0.000812   0.009814
    30  O   -0.005035   0.000016   0.000019   0.019512  -0.002049  -0.002410
    31  C   -0.002952  -0.000004   0.000002   0.000809  -0.001289   0.000496
    32  H    0.000833   0.000000   0.000000  -0.000283  -0.000014  -0.000011
    33  H    0.000087   0.000000   0.000000  -0.000224   0.000000  -0.000002
    34  H   -0.000750   0.000000   0.000000  -0.000191   0.000029  -0.000003
             19         20         21         22         23         24
     1  C   -0.107113  -0.000495   0.003098  -0.018891   0.001145   0.000006
     2  C    0.050069   0.000556  -0.001545   0.011872  -0.000156  -0.000037
     3  C   -0.412596   0.025751  -0.015993  -0.009286  -0.007894   0.000171
     4  N   -0.013808   0.001756  -0.003437  -0.024083   0.001259   0.000075
     5  H    0.001216  -0.000011   0.000053   0.000528   0.000000   0.000000
     6  H    0.000322   0.000000   0.000000  -0.000033   0.000000   0.000000
     7  H    0.015011  -0.000167   0.000045   0.001064   0.000075  -0.000002
     8  N   -0.034970  -0.000260   0.000499   0.005431   0.000124  -0.000018
     9  C   -0.025140   0.000134   0.000025   0.000025   0.000069  -0.000014
    10  H    0.001278   0.000000   0.000000  -0.000051   0.000000   0.000000
    11  H   -0.000236   0.000000   0.000000  -0.000005   0.000000   0.000000
    12  H    0.000667   0.000000   0.000000   0.000020   0.000000   0.000000
    13  C    0.396293  -0.068755   0.009206  -0.154982   0.007745   0.010369
    14  H   -0.039656   0.003220  -0.000683   0.004749   0.000026  -0.000032
    15  H    0.010241   0.000374   0.001488   0.009092  -0.000043  -0.000032
    16  C   -2.864161   0.146462  -0.130680   0.360336  -0.070164   0.076802
    17  H   -0.215140   0.006812  -0.005784   0.010853  -0.000211  -0.000434
    18  H   -0.089359  -0.006325   0.007568   0.034589   0.004161  -0.000537
    19  C    9.750914   0.250341   0.474663  -0.606271   0.030862  -0.094417
    20  H    0.250341   0.477736  -0.044853  -0.037627  -0.007148  -0.004222
    21  H    0.474663  -0.044853   0.477778  -0.015799   0.005989  -0.004288
    22  C   -0.606271  -0.037627  -0.015799   6.379743   0.373832   0.356678
    23  H    0.030862  -0.007148   0.005989   0.373832   0.427328  -0.026832
    24  H   -0.094417  -0.004222  -0.004288   0.356678  -0.026832   0.456413
    25  H   -0.026882   0.006068  -0.007040   0.383330  -0.029386  -0.026598
    26  S    0.256427  -0.000668  -0.000407  -0.055784   0.007734  -0.000490
    27  O   -0.206138   0.000086   0.000079   0.016499  -0.003334   0.000605
    28  O   -0.020138  -0.000229   0.000329  -0.010179   0.000530   0.000011
    29  O    0.052241  -0.000001  -0.000015   0.002340  -0.001371  -0.000017
    30  O    0.013812  -0.000002  -0.000003  -0.003397   0.000123   0.000006
    31  C    0.009600   0.000004  -0.000018   0.000079   0.000017  -0.000009
    32  H   -0.000889   0.000000   0.000000   0.000232   0.000001   0.000000
    33  H   -0.000013   0.000000   0.000000  -0.000047   0.000000   0.000000
    34  H    0.001123   0.000000   0.000000  -0.000386  -0.000002   0.000000
             25         26         27         28         29         30
     1  C   -0.000721  -0.016345  -0.021653   0.112889   0.047715   0.007736
     2  C    0.000107   0.040536   0.045204  -0.039154  -0.087159  -0.011354
     3  C    0.005138  -0.325474  -0.080136  -0.247084   0.268602   0.031530
     4  N   -0.000444   0.074633  -0.021027   0.015065  -0.027737   0.017110
     5  H   -0.000002  -0.000783   0.000094   0.001210   0.000026  -0.000019
     6  H    0.000000  -0.000312  -0.000204   0.001391   0.000831   0.000096
     7  H   -0.000003   0.021001   0.001871   0.003575  -0.021486   0.001679
     8  N   -0.000104   0.031578   0.047497   0.065426  -0.075225  -0.022041
     9  C   -0.000009   0.001106   0.032286   0.036550  -0.061100  -0.037838
    10  H    0.000000  -0.043581  -0.006203   0.008918   0.003022   0.021630
    11  H    0.000000   0.009341   0.000134  -0.000794   0.002642  -0.001186
    12  H    0.000000  -0.005633  -0.000052  -0.002588  -0.008895   0.002714
    13  C   -0.006215  -0.086036   0.109837  -0.058707  -0.034473  -0.005035
    14  H    0.000026   0.005242  -0.000336  -0.000868  -0.000070   0.000016
    15  H    0.000131   0.001194  -0.000423  -0.001038   0.000197   0.000019
    16  C   -0.014036  -0.215326   0.016794   0.043404   0.002382   0.019512
    17  H    0.003461  -0.001447   0.010746   0.004787  -0.000812  -0.002049
    18  H   -0.000098  -0.004372   0.019575  -0.016632   0.009814  -0.002410
    19  C   -0.026882   0.256427  -0.206138  -0.020138   0.052241   0.013812
    20  H    0.006068  -0.000668   0.000086  -0.000229  -0.000001  -0.000002
    21  H   -0.007040  -0.000407   0.000079   0.000329  -0.000015  -0.000003
    22  C    0.383330  -0.055784   0.016499  -0.010179   0.002340  -0.003397
    23  H   -0.029386   0.007734  -0.003334   0.000530  -0.001371   0.000123
    24  H   -0.026598  -0.000490   0.000605   0.000011  -0.000017   0.000006
    25  H    0.431511   0.005332  -0.004234  -0.001201   0.000201   0.000098
    26  S    0.005332  17.269493  -0.299342  -0.003956   0.025781  -0.467031
    27  O   -0.004234  -0.299342   9.338158  -0.038544  -0.467281  -0.307909
    28  O   -0.001201  -0.003956  -0.038544   8.772986  -0.438239   0.044748
    29  O    0.000201   0.025781  -0.467281  -0.438239   9.136170   0.054489
    30  O    0.000098  -0.467031  -0.307909   0.044748   0.054489   9.033393
    31  C   -0.000046  -0.374075   0.021298   0.122351  -0.045157  -0.092690
    32  H   -0.000006  -0.013169   0.007691  -0.002440  -0.001172  -0.041442
    33  H    0.000000   0.004148  -0.003099  -0.003338   0.001972  -0.068726
    34  H   -0.000003  -0.006321   0.001421   0.010155  -0.002922  -0.051370
             31         32         33         34
     1  C   -0.007113  -0.000210   0.000381   0.000101
     2  C    0.017900  -0.000317  -0.000492   0.000128
     3  C   -0.062478  -0.001239   0.000671  -0.000786
     4  N    0.004100  -0.000551   0.000022   0.000136
     5  H    0.000061   0.000002   0.000000   0.000000
     6  H   -0.000055  -0.000006   0.000000   0.000000
     7  H    0.000867   0.000011  -0.000001   0.000001
     8  N    0.011211   0.000372  -0.000095  -0.000107
     9  C    0.008534   0.002005  -0.000648  -0.000106
    10  H    0.001829  -0.000053   0.000096  -0.000015
    11  H   -0.000557   0.000007  -0.000001   0.000000
    12  H    0.000656  -0.000006   0.000004   0.000001
    13  C   -0.002952   0.000833   0.000087  -0.000750
    14  H   -0.000004   0.000000   0.000000   0.000000
    15  H    0.000002   0.000000   0.000000   0.000000
    16  C    0.000809  -0.000283  -0.000224  -0.000191
    17  H   -0.001289  -0.000014   0.000000   0.000029
    18  H    0.000496  -0.000011  -0.000002  -0.000003
    19  C    0.009600  -0.000889  -0.000013   0.001123
    20  H    0.000004   0.000000   0.000000   0.000000
    21  H   -0.000018   0.000000   0.000000   0.000000
    22  C    0.000079   0.000232  -0.000047  -0.000386
    23  H    0.000017   0.000001   0.000000  -0.000002
    24  H   -0.000009   0.000000   0.000000   0.000000
    25  H   -0.000046  -0.000006   0.000000  -0.000003
    26  S   -0.374075  -0.013169   0.004148  -0.006321
    27  O    0.021298   0.007691  -0.003099   0.001421
    28  O    0.122351  -0.002440  -0.003338   0.010155
    29  O   -0.045157  -0.001172   0.001972  -0.002922
    30  O   -0.092690  -0.041442  -0.068726  -0.051370
    31  C    5.915471   0.385559   0.408792   0.396494
    32  H    0.385559   0.470223  -0.030558  -0.042522
    33  H    0.408792  -0.030558   0.466763  -0.025363
    34  H    0.396494  -0.042522  -0.025363   0.445351
 Mulliken atomic charges:
              1
     1  C   -0.238072
     2  C   -0.235753
     3  C   -0.649368
     4  N    0.575953
     5  H    0.268593
     6  H    0.277043
     7  H    0.361758
     8  N    0.415923
     9  C   -0.736027
    10  H    0.355934
    11  H    0.261815
    12  H    0.294153
    13  C   -1.192690
    14  H    0.294087
    15  H    0.262715
    16  C    0.118601
    17  H    0.318196
    18  H    0.292383
    19  C   -0.558153
    20  H    0.251463
    21  H    0.249727
    22  C   -1.014472
    23  H    0.285522
    24  H    0.256845
    25  H    0.281625
    26  S    0.167007
    27  O   -0.209960
    28  O   -0.359196
    29  O   -0.335290
    30  O   -0.134210
    31  C   -0.719682
    32  H    0.267951
    33  H    0.249673
    34  H    0.275906
 Sum of Mulliken atomic charges =   0.00000
 Mulliken charges with hydrogens summed into heavy atoms:
              1
     1  C    0.030521
     2  C    0.041290
     3  C   -0.287611
     4  N    0.575953
     8  N    0.415923
     9  C    0.175876
    13  C   -0.635888
    16  C    0.729179
    19  C   -0.056962
    22  C   -0.190480
    26  S    0.167007
    27  O   -0.209960
    28  O   -0.359196
    29  O   -0.335290
    30  O   -0.134210
    31  C    0.073848
 Sum of Mulliken charges with hydrogens summed into heavy atoms =   0.00000
 Electronic spatial extent (au):  <R**2>=           4151.8378
 Charge=              0.0000 electrons
 Dipole moment (field-independent basis, Debye):
    X=              2.2363    Y=              8.6850    Z=              1.6649  Tot=              9.1216
 Quadrupole moment (field-independent basis, Debye-Ang):
   XX=            -92.2215   YY=            -97.8147   ZZ=           -103.2024
   XY=             -2.1638   XZ=             -3.0488   YZ=             -2.4791
 Traceless Quadrupole moment (field-independent basis, Debye-Ang):
   XX=              5.5247   YY=             -0.0685   ZZ=             -5.4562
   XY=             -2.1638   XZ=             -3.0488   YZ=             -2.4791
 Octapole moment (field-independent basis, Debye-Ang**2):
  XXX=            -24.1186  YYY=             22.4238  ZZZ=              5.5397  XYY=            -32.6456
  XXY=             13.8609  XXZ=             11.5450  XZZ=              0.4219  YZZ=             16.9138
  YYZ=             18.0590  XYZ=             14.5086
 Hexadecapole moment (field-independent basis, Debye-Ang**3):
 XXXX=          -2681.1670 YYYY=          -2350.7973 ZZZZ=           -473.9914 XXXY=             28.5584
 XXXZ=            -19.4207 YYYX=              1.0499 YYYZ=             16.6279 ZZZX=              2.7005
 ZZZY=              8.0220 XXYY=           -748.8456 XXZZ=           -522.3129 YYZZ=           -423.0016
 XXYZ=            -24.1512 YYXZ=            -14.8677 ZZXY=             10.0496
 N-N= 1.441137579917D+03 E-N=-5.614940898829D+03  KE= 1.159127318237D+03
 1\1\GINC-N0291\FOpt\RM062X\6-311+G(d)\C9H18N2O4S1\WAB665\15-Mar-2017\0
 \\# opt M062X/6-311+G* geom=connectivity\\Title Card Required\\0,1\C,-
 0.9698402802,-2.4182854083,-0.2857015147\C,0.281890267,-2.3095385672,0
 .224023564\C,-1.0456198411,-1.0350964802,1.4171502353\N,-1.7836965082,
 -1.6008354269,0.4673689268\H,-1.3549637035,-3.0071324142,-1.100215897\
 H,1.201979003,-2.7963912772,-0.0495511677\H,-1.4152650162,-0.426542081
 ,2.225429499\N,0.2137864008,-1.4302291366,1.2790984515\C,1.256928384,-
 1.2324141146,2.2815551132\H,1.3630432949,-2.1596701041,2.8446080504\H,
 2.1862296017,-0.9588087493,1.7841863224\H,0.9402531844,-0.4503949198,2
 .965612341\C,-3.254287888,-1.568599215,0.4385039811\H,-3.5702423249,-0
 .5228463199,0.4304980074\H,-3.5584236552,-2.0140493078,-0.5106149165\C
 ,-3.8243653864,-2.3277905384,1.6301073733\H,-3.3843305644,-3.328498094
 8,1.6623286329\H,-3.5058957513,-1.8380662678,2.5562911146\C,-5.3458629
 089,-2.41109892,1.5948786855\H,-5.7751586161,-1.4026170489,1.562109936
 \H,-5.6689631497,-2.9154693072,0.6763535835\C,-5.8763736352,-3.1618782
 712,2.8137895317\H,-5.5624156487,-2.6728401732,3.737919462\H,-6.966702
 8359,-3.2177037811,2.8029421145\H,-5.4784644986,-4.17807265,2.84634081
 9\S,-1.3475366962,-3.1365094257,3.9297583293\O,-2.6388140458,-3.651136
 5993,4.3676980243\O,-0.9240545952,-3.635533162,2.6063678091\O,-1.16266
 20358,-1.6859043679,4.0708090911\O,-0.2322852776,-3.7202916346,4.97559
 82321\C,-0.2705469211,-5.1324026803,5.1514559755\H,-0.128308686,-5.640
 3787636,4.1941559494\H,0.548682618,-5.3741012003,5.825961486\H,-1.2222
 790336,-5.4341838415,5.5918672838\\Version=EM64L-G09RevA.02\State=1-A\
 HF=-1162.1946748\RMSD=7.027e-09\RMSF=7.250e-06\Dipole=0.9169799,1.1457
 074,-3.2749489\Quadrupole=4.6309218,-1.0922949,-3.5386269,-0.8591672,0
 .7859383,-2.9752028\PG=C01 [X(C9H18N2O4S1)]\\@


 Human beings, who are almost unique in having the
 ability to learn from the experience of others, are
 also remarkable for their apparent disinclination to do so.
                               -- Douglas Adams,
                                Last Chance to See
 Job cpu time:  1 days 23 hours 51 minutes 15.6 seconds.
 File lengths (MBytes):  RWF=    240 Int=      0 D2E=      0 Chk=     14 Scr=      4
 Normal termination of Gaussian 09 at Wed Mar 15 11:08:45 2017.
