 Entering Gaussian System, Link 0=g09
 Input=PAM_FOR_1.com
 Output=PAM_FOR_1.log
 Initial command:
 /gscratch/pfaendtner/codes/G09/g09/l1.exe /gscratch/pfaendtner/wesley/gaussian/Gau-2105.inp -scrdir=/gscratch/pfaendtner/wesley/gaussian/
 Entering Link 1 = /gscratch/pfaendtner/codes/G09/g09/l1.exe PID=      2106.
  
 Copyright (c) 1988,1990,1992,1993,1995,1998,2003,2009, Gaussian, Inc.
                  All Rights Reserved.
  
 This is part of the Gaussian(R) 09 program.  It is based on
 the Gaussian(R) 03 system (copyright 2003, Gaussian, Inc.),
 the Gaussian(R) 98 system (copyright 1998, Gaussian, Inc.),
 the Gaussian(R) 94 system (copyright 1995, Gaussian, Inc.),
 the Gaussian 92(TM) system (copyright 1992, Gaussian, Inc.),
 the Gaussian 90(TM) system (copyright 1990, Gaussian, Inc.),
 the Gaussian 88(TM) system (copyright 1988, Gaussian, Inc.),
 the Gaussian 86(TM) system (copyright 1986, Carnegie Mellon
 University), and the Gaussian 82(TM) system (copyright 1983,
 Carnegie Mellon University). Gaussian is a federally registered
 trademark of Gaussian, Inc.
  
 This software contains proprietary and confidential information,
 including trade secrets, belonging to Gaussian, Inc.
  
 This software is provided under written license and may be
 used, copied, transmitted, or stored only in accord with that
 written license.
  
 The following legend is applicable only to US Government
 contracts under FAR:
  
                    RESTRICTED RIGHTS LEGEND
  
 Use, reproduction and disclosure by the US Government is
 subject to restrictions as set forth in subparagraphs (a)
 and (c) of the Commercial Computer Software - Restricted
 Rights clause in FAR 52.227-19.
  
 Gaussian, Inc.
 340 Quinnipiac St., Bldg. 40, Wallingford CT 06492
  
  
 ---------------------------------------------------------------
 Warning -- This program may not be used in any manner that
 competes with the business of Gaussian, Inc. or will provide
 assistance to any competitor of Gaussian, Inc.  The licensee
 of this program is prohibited from giving any competitor of
 Gaussian, Inc. access to this program.  By using this program,
 the user acknowledges that Gaussian, Inc. is engaged in the
 business of creating and licensing software in the field of
 computational chemistry and represents and warrants to the
 licensee that it is not a competitor of Gaussian, Inc. and that
 it will not use this program in any manner prohibited above.
 ---------------------------------------------------------------
  

 Cite this work as:
 Gaussian 09, Revision A.02,
 M. J. Frisch, G. W. Trucks, H. B. Schlegel, G. E. Scuseria, 
 M. A. Robb, J. R. Cheeseman, G. Scalmani, V. Barone, B. Mennucci, 
 G. A. Petersson, H. Nakatsuji, M. Caricato, X. Li, H. P. Hratchian, 
 A. F. Izmaylov, J. Bloino, G. Zheng, J. L. Sonnenberg, M. Hada, 
 M. Ehara, K. Toyota, R. Fukuda, J. Hasegawa, M. Ishida, T. Nakajima, 
 Y. Honda, O. Kitao, H. Nakai, T. Vreven, J. A. Montgomery, Jr., 
 J. E. Peralta, F. Ogliaro, M. Bearpark, J. J. Heyd, E. Brothers, 
 K. N. Kudin, V. N. Staroverov, R. Kobayashi, J. Normand, 
 K. Raghavachari, A. Rendell, J. C. Burant, S. S. Iyengar, J. Tomasi, 
 M. Cossi, N. Rega, J. M. Millam, M. Klene, J. E. Knox, J. B. Cross, 
 V. Bakken, C. Adamo, J. Jaramillo, R. Gomperts, R. E. Stratmann, 
 O. Yazyev, A. J. Austin, R. Cammi, C. Pomelli, J. W. Ochterski, 
 R. L. Martin, K. Morokuma, V. G. Zakrzewski, G. A. Voth, 
 P. Salvador, J. J. Dannenberg, S. Dapprich, A. D. Daniels, 
 O. Farkas, J. B. Foresman, J. V. Ortiz, J. Cioslowski, 
 and D. J. Fox, Gaussian, Inc., Wallingford CT, 2009.
 
 ******************************************
 Gaussian 09:  EM64L-G09RevA.02 11-Jun-2009
                 8-Mar-2017 
 ******************************************
 %chk=PAM_FOR_1.chk
 %nprocshared=2
 Will use up to    2 processors via shared memory.
 --------------------------------------
 # opt M062X/6-311+G* geom=connectivity
 --------------------------------------
 1/14=-1,18=20,19=15,26=3,38=1,57=2/1,3;
 2/9=110,12=2,17=6,18=5,40=1/2;
 3/5=4,6=6,7=11,11=2,16=1,25=1,30=1,71=1,74=-55/1,2,3;
 4//1;
 5/5=2,38=5/2;
 6/7=2,8=2,9=2,10=2,28=1/1;
 7//1,2,3,16;
 1/14=-1,18=20,19=15/3(2);
 2/9=110/2;
 99//99;
 2/9=110/2;
 3/5=4,6=6,7=11,11=2,16=1,25=1,30=1,71=1,74=-55/1,2,3;
 4/5=5,16=3/1;
 5/5=2,38=5/2;
 7//1,2,3,16;
 1/14=-1,18=20,19=15/3(-5);
 2/9=110/2;
 6/7=2,8=2,9=2,10=2,19=2,28=1/1;
 99/9=1/99;
 -------------------
 Title Card Required
 -------------------
 Symbolic Z-matrix:
 Charge =  0 Multiplicity = 1
 C(PDBName=C1,ResName=PAM,ResNum=1) -2.13114  -0.80019   0.11587 
 H(PDBName=H1,ResName=PAM,ResNum=1) -1.89144  -1.8138    0.3609 
 H(PDBName=H2,ResName=PAM,ResNum=1) -3.19353  -0.69064   0.05081 
 C(PDBName=C2,ResName=PAM,ResNum=1) -1.58467   0.13547   1.21018 
 H(PDBName=H3,ResName=PAM,ResNum=1) -1.82437   1.14908   0.96516 
 H(PDBName=H4,ResName=PAM,ResNum=1) -2.02766  -0.1185    2.15048 
 C(PDBName=C3,ResName=PAM,ResNum=1) -0.05563  -0.02219   1.30382 
 H(PDBName=H5,ResName=PAM,ResNum=1)  0.38737   0.23177   0.36352 
 H(PDBName=H6,ResName=PAM,ResNum=1)  0.18407  -1.0358    1.54885 
 C(PDBName=C4,ResName=PAM,ResNum=1)  0.49085   0.91346   2.39813 
 H(PDBName=H7,ResName=PAM,ResNum=1)  0.04785   0.6595    3.33843 
 H(PDBName=H8,ResName=PAM,ResNum=1)  0.25115   1.92707   2.1531 
 N(PDBName=N1,ResName=PAM,ResNum=1)  1.95039   0.76297   2.48751 
 H(PDBName=H9,ResName=PAM,ResNum=1)  2.30524   1.37054   3.1981 
 H(PDBName=H10,ResName=PAM,ResNum=1)  2.17441  -0.18433   2.71651 
 H(PDBName=H11,ResName=PAM,ResNum=1)  2.3644    1.00032   1.60873 
 C(PDBName=C5,ResName=PAM,ResNum=1) -1.49356  -0.43467  -1.23745 
 H(PDBName=H12,ResName=PAM,ResNum=1) -0.43118  -0.54421  -1.17239 
 H(PDBName=H13,ResName=PAM,ResNum=1) -1.87326  -1.08477  -1.99778 
 H(PDBName=H14,ResName=PAM,ResNum=1) -1.73327   0.57894  -1.48248 
 O                     1.90266   3.12604   1.05589 
 C                     0.64426   3.12347   1.05561 
 H                     0.10736   4.04847   1.08736 
 O                     0.0173    2.03302   1.01798 
 

 GradGradGradGradGradGradGradGradGradGradGradGradGradGradGradGradGradGrad
 Berny optimization.
 Initialization pass.
                           ----------------------------
                           !    Initial Parameters    !
                           ! (Angstroms and Degrees)  !
 --------------------------                            --------------------------
 ! Name  Definition              Value          Derivative Info.                !
 --------------------------------------------------------------------------------
 ! R1    R(1,2)                  1.07           estimate D2E/DX2                !
 ! R2    R(1,3)                  1.07           estimate D2E/DX2                !
 ! R3    R(1,4)                  1.54           estimate D2E/DX2                !
 ! R4    R(1,17)                 1.54           estimate D2E/DX2                !
 ! R5    R(4,5)                  1.07           estimate D2E/DX2                !
 ! R6    R(4,6)                  1.07           estimate D2E/DX2                !
 ! R7    R(4,7)                  1.54           estimate D2E/DX2                !
 ! R8    R(7,8)                  1.07           estimate D2E/DX2                !
 ! R9    R(7,9)                  1.07           estimate D2E/DX2                !
 ! R10   R(7,10)                 1.54           estimate D2E/DX2                !
 ! R11   R(10,11)                1.07           estimate D2E/DX2                !
 ! R12   R(10,12)                1.07           estimate D2E/DX2                !
 ! R13   R(10,13)                1.47           estimate D2E/DX2                !
 ! R14   R(12,24)                1.1638         estimate D2E/DX2                !
 ! R15   R(13,14)                1.0            estimate D2E/DX2                !
 ! R16   R(13,15)                1.0            estimate D2E/DX2                !
 ! R17   R(13,16)                1.0            estimate D2E/DX2                !
 ! R18   R(17,18)                1.07           estimate D2E/DX2                !
 ! R19   R(17,19)                1.07           estimate D2E/DX2                !
 ! R20   R(17,20)                1.07           estimate D2E/DX2                !
 ! R21   R(21,22)                1.2584         estimate D2E/DX2                !
 ! R22   R(22,23)                1.07           estimate D2E/DX2                !
 ! R23   R(22,24)                1.2584         estimate D2E/DX2                !
 ! A1    A(2,1,3)              109.4712         estimate D2E/DX2                !
 ! A2    A(2,1,4)              109.4712         estimate D2E/DX2                !
 ! A3    A(2,1,17)             109.4712         estimate D2E/DX2                !
 ! A4    A(3,1,4)              109.4712         estimate D2E/DX2                !
 ! A5    A(3,1,17)             109.4712         estimate D2E/DX2                !
 ! A6    A(4,1,17)             109.4712         estimate D2E/DX2                !
 ! A7    A(1,4,5)              109.4712         estimate D2E/DX2                !
 ! A8    A(1,4,6)              109.4712         estimate D2E/DX2                !
 ! A9    A(1,4,7)              109.4712         estimate D2E/DX2                !
 ! A10   A(5,4,6)              109.4712         estimate D2E/DX2                !
 ! A11   A(5,4,7)              109.4712         estimate D2E/DX2                !
 ! A12   A(6,4,7)              109.4712         estimate D2E/DX2                !
 ! A13   A(4,7,8)              109.4712         estimate D2E/DX2                !
 ! A14   A(4,7,9)              109.4712         estimate D2E/DX2                !
 ! A15   A(4,7,10)             109.4712         estimate D2E/DX2                !
 ! A16   A(8,7,9)              109.4712         estimate D2E/DX2                !
 ! A17   A(8,7,10)             109.4712         estimate D2E/DX2                !
 ! A18   A(9,7,10)             109.4712         estimate D2E/DX2                !
 ! A19   A(7,10,11)            109.4712         estimate D2E/DX2                !
 ! A20   A(7,10,12)            109.4712         estimate D2E/DX2                !
 ! A21   A(7,10,13)            109.4712         estimate D2E/DX2                !
 ! A22   A(11,10,12)           109.4712         estimate D2E/DX2                !
 ! A23   A(11,10,13)           109.4712         estimate D2E/DX2                !
 ! A24   A(12,10,13)           109.4712         estimate D2E/DX2                !
 ! A25   A(10,12,24)           110.7692         estimate D2E/DX2                !
 ! A26   A(10,13,14)           109.4712         estimate D2E/DX2                !
 ! A27   A(10,13,15)           109.4712         estimate D2E/DX2                !
 ! A28   A(10,13,16)           109.4712         estimate D2E/DX2                !
 ! A29   A(14,13,15)           109.4712         estimate D2E/DX2                !
 ! A30   A(14,13,16)           109.4712         estimate D2E/DX2                !
 ! A31   A(15,13,16)           109.4712         estimate D2E/DX2                !
 ! A32   A(1,17,18)            109.4712         estimate D2E/DX2                !
 ! A33   A(1,17,19)            109.4712         estimate D2E/DX2                !
 ! A34   A(1,17,20)            109.4712         estimate D2E/DX2                !
 ! A35   A(18,17,19)           109.4712         estimate D2E/DX2                !
 ! A36   A(18,17,20)           109.4712         estimate D2E/DX2                !
 ! A37   A(19,17,20)           109.4712         estimate D2E/DX2                !
 ! A38   A(21,22,23)           120.0            estimate D2E/DX2                !
 ! A39   A(21,22,24)           120.0            estimate D2E/DX2                !
 ! A40   A(23,22,24)           120.0            estimate D2E/DX2                !
 ! A41   A(12,24,22)            87.1116         estimate D2E/DX2                !
 ! D1    D(2,1,4,5)            180.0            estimate D2E/DX2                !
 ! D2    D(2,1,4,6)            -60.0            estimate D2E/DX2                !
 ! D3    D(2,1,4,7)             60.0            estimate D2E/DX2                !
 ! D4    D(3,1,4,5)            -60.0            estimate D2E/DX2                !
 ! D5    D(3,1,4,6)             60.0            estimate D2E/DX2                !
 ! D6    D(3,1,4,7)            180.0            estimate D2E/DX2                !
 ! D7    D(17,1,4,5)            60.0            estimate D2E/DX2                !
 ! D8    D(17,1,4,6)           180.0            estimate D2E/DX2                !
 ! D9    D(17,1,4,7)           -60.0            estimate D2E/DX2                !
 ! D10   D(2,1,17,18)          -60.0            estimate D2E/DX2                !
 ! D11   D(2,1,17,19)           60.0            estimate D2E/DX2                !
 ! D12   D(2,1,17,20)         -180.0            estimate D2E/DX2                !
 ! D13   D(3,1,17,18)          180.0            estimate D2E/DX2                !
 ! D14   D(3,1,17,19)          -60.0            estimate D2E/DX2                !
 ! D15   D(3,1,17,20)           60.0            estimate D2E/DX2                !
 ! D16   D(4,1,17,18)           60.0            estimate D2E/DX2                !
 ! D17   D(4,1,17,19)          180.0            estimate D2E/DX2                !
 ! D18   D(4,1,17,20)          -60.0            estimate D2E/DX2                !
 ! D19   D(1,4,7,8)             60.0            estimate D2E/DX2                !
 ! D20   D(1,4,7,9)            -60.0            estimate D2E/DX2                !
 ! D21   D(1,4,7,10)           180.0            estimate D2E/DX2                !
 ! D22   D(5,4,7,8)            -60.0            estimate D2E/DX2                !
 ! D23   D(5,4,7,9)            180.0            estimate D2E/DX2                !
 ! D24   D(5,4,7,10)            60.0            estimate D2E/DX2                !
 ! D25   D(6,4,7,8)            180.0            estimate D2E/DX2                !
 ! D26   D(6,4,7,9)             60.0            estimate D2E/DX2                !
 ! D27   D(6,4,7,10)           -60.0            estimate D2E/DX2                !
 ! D28   D(4,7,10,11)           60.0            estimate D2E/DX2                !
 ! D29   D(4,7,10,12)          -60.0            estimate D2E/DX2                !
 ! D30   D(4,7,10,13)          180.0            estimate D2E/DX2                !
 ! D31   D(8,7,10,11)          180.0            estimate D2E/DX2                !
 ! D32   D(8,7,10,12)           60.0            estimate D2E/DX2                !
 ! D33   D(8,7,10,13)          -60.0            estimate D2E/DX2                !
 ! D34   D(9,7,10,11)          -60.0            estimate D2E/DX2                !
 ! D35   D(9,7,10,12)          180.0            estimate D2E/DX2                !
 ! D36   D(9,7,10,13)           60.0            estimate D2E/DX2                !
 ! D37   D(7,10,12,24)         -20.2078         estimate D2E/DX2                !
 ! D38   D(11,10,12,24)       -140.2078         estimate D2E/DX2                !
 ! D39   D(13,10,12,24)         99.7922         estimate D2E/DX2                !
 ! D40   D(7,10,13,14)         180.0            estimate D2E/DX2                !
 ! D41   D(7,10,13,15)         -60.0            estimate D2E/DX2                !
 ! D42   D(7,10,13,16)          60.0            estimate D2E/DX2                !
 ! D43   D(11,10,13,14)        -60.0            estimate D2E/DX2                !
 ! D44   D(11,10,13,15)         60.0            estimate D2E/DX2                !
 ! D45   D(11,10,13,16)       -180.0            estimate D2E/DX2                !
 ! D46   D(12,10,13,14)         60.0            estimate D2E/DX2                !
 ! D47   D(12,10,13,15)        180.0            estimate D2E/DX2                !
 ! D48   D(12,10,13,16)        -60.0            estimate D2E/DX2                !
 ! D49   D(10,12,24,22)       -140.4724         estimate D2E/DX2                !
 ! D50   D(21,22,24,12)         78.2745         estimate D2E/DX2                !
 ! D51   D(23,22,24,12)       -101.7255         estimate D2E/DX2                !
 --------------------------------------------------------------------------------
 Trust Radius=3.00D-01 FncErr=1.00D-07 GrdErr=1.00D-06
 Number of steps in this run= 125 maximum allowed number of steps= 144.
 GradGradGradGradGradGradGradGradGradGradGradGradGradGradGradGradGradGrad

                          Input orientation:                          
 ---------------------------------------------------------------------
 Center     Atomic      Atomic             Coordinates (Angstroms)
 Number     Number       Type             X           Y           Z
 ---------------------------------------------------------------------
      1          6           0       -2.131144   -0.800188    0.115872
      2          1           0       -1.891444   -1.813798    0.360899
      3          1           0       -3.193532   -0.690643    0.050811
      4          6           0       -1.584671    0.135469    1.210181
      5          1           0       -1.824372    1.149079    0.965155
      6          1           0       -2.027664   -0.118496    2.150478
      7          6           0       -0.055627   -0.022195    1.303821
      8          1           0        0.387366    0.231771    0.363524
      9          1           0        0.184074   -1.035805    1.548847
     10          6           0        0.490846    0.913462    2.398130
     11          1           0        0.047853    0.659497    3.338427
     12          1           0        0.251145    1.927073    2.153103
     13          7           0        1.950388    0.762965    2.487513
     14          1           0        2.305241    1.370535    3.198103
     15          1           0        2.174407   -0.184334    2.716510
     16          1           0        2.364400    1.000316    1.608731
     17          6           0       -1.493565   -0.434668   -1.237452
     18          1           0       -0.431178   -0.544214   -1.172391
     19          1           0       -1.873258   -1.084768   -1.997784
     20          1           0       -1.733266    0.578942   -1.482479
     21          8           0        1.902658    3.126043    1.055894
     22          6           0        0.644260    3.123465    1.055609
     23          1           0        0.107357    4.048466    1.087360
     24          8           0        0.017302    2.033017    1.017980
 ---------------------------------------------------------------------
                    Distance matrix (angstroms):
                    1          2          3          4          5
     1  C    0.000000
     2  H    1.070000   0.000000
     3  H    1.070000   1.747303   0.000000
     4  C    1.540000   2.148263   2.148263   0.000000
     5  H    2.148263   3.024610   2.468846   1.070000   0.000000
     6  H    2.148263   2.468846   2.468846   1.070000   1.747303
     7  C    2.514809   2.732978   3.444314   1.540000   2.148263
     8  H    2.732978   3.062243   3.710993   2.148263   2.468846
     9  H    2.732978   2.514809   3.710993   2.148263   3.024610
    10  C    3.875582   4.154945   4.653783   2.514809   2.732978
    11  H    4.154945   4.329403   4.810184   2.732978   3.062243
    12  H    4.154945   4.668704   4.810184   2.732978   2.514809
    13  N    4.972628   5.091352   5.874555   3.810770   4.088455
    14  H    5.821830   5.983466   6.662612   4.539673   4.699872
    15  H    5.067580   4.973450   6.014737   4.062261   4.564588
    16  H    5.067580   5.252479   6.014737   4.062261   4.240535
    17  C    1.540000   2.148263   2.148263   2.514809   2.732978
    18  H    2.148263   2.468846   3.024610   2.732978   3.062243
    19  H    2.148263   2.468846   2.468846   3.444314   3.710993
    20  H    2.148263   3.024610   2.468846   2.732978   2.514809
    21  O    5.707057   6.267396   6.445807   4.596607   4.219878
    22  C    4.897043   5.593656   5.503243   3.730972   3.162361
    23  H    5.428087   6.236112   5.867662   4.264926   3.486109
    24  O    3.668333   4.344313   4.320091   2.490772   2.043501
                    6          7          8          9         10
     6  H    0.000000
     7  C    2.148263   0.000000
     8  H    3.024610   1.070000   0.000000
     9  H    2.468846   1.070000   1.747303   0.000000
    10  C    2.732978   1.540000   2.148263   2.148263   0.000000
    11  H    2.514809   2.148263   3.024610   2.468846   1.070000
    12  H    3.062243   2.148263   2.468846   3.024610   1.070000
    13  N    4.088455   2.457987   2.690081   2.690081   1.470000
    14  H    4.699872   3.331921   3.606919   3.606919   2.034920
    15  H    4.240535   2.644813   2.983823   2.459648   2.034920
    16  H    4.564588   2.644813   2.459648   2.983823   2.034920
    17  C    3.444314   2.948875   2.558352   3.307461   4.355778
    18  H    3.710993   2.558352   1.905571   2.832902   3.965295
    19  H    4.262112   3.915793   3.524126   4.100439   5.376427
    20  H    3.710993   3.307461   2.832902   3.933514   4.485276
    21  O    5.212733   3.715878   3.339506   4.529626   2.947935
    22  C    4.341456   3.232124   2.984439   4.213619   2.590369
    23  H    4.801262   4.079669   3.894805   5.105748   3.419565
    24  O    3.177019   2.076275   1.951858   3.118862   1.839147
                   11         12         13         14         15
    11  H    0.000000
    12  H    1.747303   0.000000
    13  N    2.086720   2.086720   0.000000
    14  H    2.370879   2.370879   1.000000   0.000000
    15  H    2.370879   2.911082   1.000000   1.632993   0.000000
    16  H    2.911082   2.370879   1.000000   1.632993   1.632993
    17  C    4.950943   4.485276   5.212533   6.112596   5.399120
    18  H    4.693172   4.199016   4.558011   5.500497   4.694905
    19  H    5.933655   5.551048   6.176752   7.105322   6.278450
    20  H    5.140039   4.355778   5.418856   6.232495   5.786536
    21  O    3.838503   2.317087   2.763321   2.798739   3.713500
    22  C    3.411466   1.670446   3.054223   3.228297   4.005181
    23  H    4.068900   2.378401   4.018918   4.056753   4.984317
    24  O    2.696658   1.163792   2.740325   3.229007   3.529129
                   16         17         18         19         20
    16  H    0.000000
    17  C    5.004381   0.000000
    18  H    4.235029   1.070000   0.000000
    19  H    5.942413   1.070000   1.747303   0.000000
    20  H    5.150146   1.070000   1.747303   1.747303   0.000000
    21  O    2.244448   5.428852   4.887006   6.427551   5.113805
    22  C    2.787936   4.742229   4.424072   5.776705   4.309190
    23  H    3.828484   5.297754   5.146766   6.308014   4.693566
    24  O    2.631412   3.668673   3.411887   4.731768   3.380993
                   21         22         23         24
    21  O    0.000000
    22  C    1.258400   0.000000
    23  H    2.018653   1.070000   0.000000
    24  O    2.179613   1.258400   2.018653   0.000000
 Stoichiometry    C6H15NO2
 Framework group  C1[X(C6H15NO2)]
 Deg. of freedom    66
 Full point group                 C1      NOp   1
 Largest Abelian subgroup         C1      NOp   1
 Largest concise Abelian subgroup C1      NOp   1
                         Standard orientation:                         
 ---------------------------------------------------------------------
 Center     Atomic      Atomic             Coordinates (Angstroms)
 Number     Number       Type             X           Y           Z
 ---------------------------------------------------------------------
      1          6           0       -2.886670    0.149063   -0.208260
      2          1           0       -3.225219    1.071826    0.214579
      3          1           0       -3.585199   -0.181723   -0.948218
      4          6           0       -1.507901    0.358946   -0.861365
      5          1           0       -1.169352   -0.563817   -1.284204
      6          1           0       -1.587004    1.096752   -1.632265
      7          6           0       -0.502541    0.835030    0.203620
      8          1           0       -0.423438    0.097225    0.974520
      9          1           0       -0.841090    1.757793    0.626459
     10          6           0        0.876227    1.044914   -0.449485
     11          1           0        0.797124    1.782719   -1.220384
     12          1           0        1.214777    0.122151   -0.872324
     13          7           0        1.835890    1.499358    0.567093
     14          1           0        2.731194    1.635645    0.142998
     15          1           0        1.519488    2.361753    0.962269
     16          1           0        1.909818    0.809820    1.287559
     17          6           0       -2.772820   -0.912825    0.901259
     18          1           0       -2.074291   -0.582039    1.641216
     19          1           0       -3.730796   -1.058653    1.355040
     20          1           0       -2.434271   -1.835588    0.478420
     21          8           0        2.632510   -1.144168    0.452576
     22          6           0        1.757265   -1.390810   -0.417300
     23          1           0        1.948477   -2.119646   -1.176994
     24          8           0        0.657140   -0.780286   -0.393718
 ---------------------------------------------------------------------
 Rotational constants (GHZ):      2.5554593      0.9060950      0.7760151
 Standard basis: 6-311+G(d) (5D, 7F)
 There are   243 symmetry adapted basis functions of A   symmetry.
 Integral buffers will be    131072 words long.
 Raffenetti 2 integral format.
 Two-electron integral symmetry is turned on.
   243 basis functions,   399 primitive gaussians,   252 cartesian basis functions
    37 alpha electrons       37 beta electrons
       nuclear repulsion energy       516.4795738816 Hartrees.
 NAtoms=   24 NActive=   24 NUniq=   24 SFac= 7.50D-01 NAtFMM=   80 NAOKFM=F Big=F
 One-electron integrals computed using PRISM.
 NBasis=   243 RedAO= T  NBF=   243
 NBsUse=   243 1.00D-06 NBFU=   243
 Harris functional with IExCor= 1009 diagonalized for initial guess.
 ExpMin= 4.38D-02 ExpMax= 8.59D+03 ExpMxC= 1.30D+03 IAcc=2 IRadAn=         0 AccDes= 0.00D+00
 HarFok:  IExCor= 1009 AccDes= 0.00D+00 IRadAn=         0 IDoV= 1
 ScaDFX=  1.000000  1.000000  1.000000  1.000000
 FoFCou: FMM=F IPFlag=           0 FMFlag=      100000 FMFlg1=           0
         NFxFlg=           0 DoJE=T BraDBF=F KetDBF=T FulRan=T
         Omega=  0.000000  0.000000  1.000000  0.000000  0.000000 ICntrl=     500 IOpCl=  0
         NMat0=    1 NMatS0=    1 NMatT0=    0 NMatD0=    1 NMtDS0=    0 NMtDT0=    0
         I1Cent=           4 NGrid=           0.
 Petite list used in FoFCou.
 Initial guess orbital symmetries:
       Occupied  (A) (A) (A) (A) (A) (A) (A) (A) (A) (A) (A) (A)
                 (A) (A) (A) (A) (A) (A) (A) (A) (A) (A) (A) (A)
                 (A) (A) (A) (A) (A) (A) (A) (A) (A) (A) (A) (A)
                 (A)
       Virtual   (A) (A) (A) (A) (A) (A) (A) (A) (A) (A) (A) (A)
                 (A) (A) (A) (A) (A) (A) (A) (A) (A) (A) (A) (A)
                 (A) (A) (A) (A) (A) (A) (A) (A) (A) (A) (A) (A)
                 (A) (A) (A) (A) (A) (A) (A) (A) (A) (A) (A) (A)
                 (A) (A) (A) (A) (A) (A) (A) (A) (A) (A) (A) (A)
                 (A) (A) (A) (A) (A) (A) (A) (A) (A) (A) (A) (A)
                 (A) (A) (A) (A) (A) (A) (A) (A) (A) (A) (A) (A)
                 (A) (A) (A) (A) (A) (A) (A) (A) (A) (A) (A) (A)
                 (A) (A) (A) (A) (A) (A) (A) (A) (A) (A) (A) (A)
                 (A) (A) (A) (A) (A) (A) (A) (A) (A) (A) (A) (A)
                 (A) (A) (A) (A) (A) (A) (A) (A) (A) (A) (A) (A)
                 (A) (A) (A) (A) (A) (A) (A) (A) (A) (A) (A) (A)
                 (A) (A) (A) (A) (A) (A) (A) (A) (A) (A) (A) (A)
                 (A) (A) (A) (A) (A) (A) (A) (A) (A) (A) (A) (A)
                 (A) (A) (A) (A) (A) (A) (A) (A) (A) (A) (A) (A)
                 (A) (A) (A) (A) (A) (A) (A) (A) (A) (A) (A) (A)
                 (A) (A) (A) (A) (A) (A) (A) (A) (A) (A) (A) (A)
                 (A) (A)
 The electronic state of the initial guess is 1-A.
 Requested convergence on RMS density matrix=1.00D-08 within 128 cycles.
 Requested convergence on MAX density matrix=1.00D-06.
 Requested convergence on             energy=1.00D-06.
 No special actions if energy rises.
 SCF Done:  E(RM062X) =  -442.554910080     A.U. after   15 cycles
             Convg  =    0.4053D-08             -V/T =  1.9999

 **********************************************************************

            Population analysis using the SCF density.

 **********************************************************************

 Orbital symmetries:
       Occupied  (A) (A) (A) (A) (A) (A) (A) (A) (A) (A) (A) (A)
                 (A) (A) (A) (A) (A) (A) (A) (A) (A) (A) (A) (A)
                 (A) (A) (A) (A) (A) (A) (A) (A) (A) (A) (A) (A)
                 (A)
       Virtual   (A) (A) (A) (A) (A) (A) (A) (A) (A) (A) (A) (A)
                 (A) (A) (A) (A) (A) (A) (A) (A) (A) (A) (A) (A)
                 (A) (A) (A) (A) (A) (A) (A) (A) (A) (A) (A) (A)
                 (A) (A) (A) (A) (A) (A) (A) (A) (A) (A) (A) (A)
                 (A) (A) (A) (A) (A) (A) (A) (A) (A) (A) (A) (A)
                 (A) (A) (A) (A) (A) (A) (A) (A) (A) (A) (A) (A)
                 (A) (A) (A) (A) (A) (A) (A) (A) (A) (A) (A) (A)
                 (A) (A) (A) (A) (A) (A) (A) (A) (A) (A) (A) (A)
                 (A) (A) (A) (A) (A) (A) (A) (A) (A) (A) (A) (A)
                 (A) (A) (A) (A) (A) (A) (A) (A) (A) (A) (A) (A)
                 (A) (A) (A) (A) (A) (A) (A) (A) (A) (A) (A) (A)
                 (A) (A) (A) (A) (A) (A) (A) (A) (A) (A) (A) (A)
                 (A) (A) (A) (A) (A) (A) (A) (A) (A) (A) (A) (A)
                 (A) (A) (A) (A) (A) (A) (A) (A) (A) (A) (A) (A)
                 (A) (A) (A) (A) (A) (A) (A) (A) (A) (A) (A) (A)
                 (A) (A) (A) (A) (A) (A) (A) (A) (A) (A) (A) (A)
                 (A) (A) (A) (A) (A) (A) (A) (A) (A) (A) (A) (A)
                 (A) (A)
 The electronic state is 1-A.
 Alpha  occ. eigenvalues --  -19.55451 -19.55238 -14.87314 -10.60136 -10.54194
 Alpha  occ. eigenvalues --  -10.51970 -10.51342 -10.50839 -10.50209  -1.19366
 Alpha  occ. eigenvalues --   -1.13225  -1.06329  -0.90186  -0.84714  -0.77242
 Alpha  occ. eigenvalues --   -0.72349  -0.70028  -0.68037  -0.65323  -0.63929
 Alpha  occ. eigenvalues --   -0.59663  -0.56470  -0.54445  -0.51463  -0.50120
 Alpha  occ. eigenvalues --   -0.49843  -0.44960  -0.44019  -0.41842  -0.41818
 Alpha  occ. eigenvalues --   -0.39399  -0.37903  -0.37448  -0.37060  -0.31796
 Alpha  occ. eigenvalues --   -0.30436  -0.23063
 Alpha virt. eigenvalues --   -0.01780   0.01351   0.02116   0.03200   0.04037
 Alpha virt. eigenvalues --    0.04871   0.05032   0.06134   0.06580   0.07369
 Alpha virt. eigenvalues --    0.07906   0.08099   0.09075   0.09371   0.10292
 Alpha virt. eigenvalues --    0.11375   0.11697   0.12540   0.12810   0.13331
 Alpha virt. eigenvalues --    0.14303   0.15352   0.15637   0.15906   0.16816
 Alpha virt. eigenvalues --    0.17649   0.18892   0.19335   0.20165   0.20761
 Alpha virt. eigenvalues --    0.21571   0.22161   0.22948   0.24019   0.24619
 Alpha virt. eigenvalues --    0.25273   0.26388   0.26674   0.27570   0.28198
 Alpha virt. eigenvalues --    0.28411   0.29562   0.29820   0.31447   0.31788
 Alpha virt. eigenvalues --    0.32122   0.32612   0.33938   0.34703   0.35077
 Alpha virt. eigenvalues --    0.35372   0.36347   0.37292   0.37968   0.41069
 Alpha virt. eigenvalues --    0.42278   0.43692   0.45397   0.47673   0.48141
 Alpha virt. eigenvalues --    0.49357   0.50533   0.51680   0.51845   0.53231
 Alpha virt. eigenvalues --    0.54309   0.57340   0.58992   0.60591   0.61722
 Alpha virt. eigenvalues --    0.62409   0.64445   0.66239   0.67603   0.68981
 Alpha virt. eigenvalues --    0.70590   0.71782   0.72198   0.72918   0.74147
 Alpha virt. eigenvalues --    0.75131   0.76210   0.77765   0.78224   0.79487
 Alpha virt. eigenvalues --    0.80700   0.81620   0.82722   0.83059   0.84085
 Alpha virt. eigenvalues --    0.84585   0.85552   0.86231   0.88491   0.92620
 Alpha virt. eigenvalues --    0.97630   1.05004   1.06770   1.09598   1.12547
 Alpha virt. eigenvalues --    1.15961   1.18530   1.18985   1.21310   1.23237
 Alpha virt. eigenvalues --    1.26279   1.29800   1.31427   1.31787   1.36664
 Alpha virt. eigenvalues --    1.39071   1.41831   1.47401   1.49391   1.54109
 Alpha virt. eigenvalues --    1.58582   1.60551   1.61125   1.62617   1.64236
 Alpha virt. eigenvalues --    1.65409   1.68179   1.68852   1.70341   1.71498
 Alpha virt. eigenvalues --    1.72546   1.76059   1.80022   1.83593   1.85574
 Alpha virt. eigenvalues --    1.89444   1.90715   1.93599   1.96337   2.00231
 Alpha virt. eigenvalues --    2.01792   2.03110   2.06533   2.07460   2.08375
 Alpha virt. eigenvalues --    2.13373   2.17941   2.22575   2.33295   2.38625
 Alpha virt. eigenvalues --    2.49946   2.54700   2.59683   2.60985   2.62849
 Alpha virt. eigenvalues --    2.63477   2.65416   2.67782   2.70314   2.72380
 Alpha virt. eigenvalues --    2.73002   2.74706   2.77488   2.81334   2.86279
 Alpha virt. eigenvalues --    2.88126   2.97324   2.99648   3.00135   3.03721
 Alpha virt. eigenvalues --    3.09675   3.10892   3.13346   3.16749   3.23306
 Alpha virt. eigenvalues --    3.27272   3.29149   3.34125   3.35129   3.37150
 Alpha virt. eigenvalues --    3.39570   3.41759   3.45210   3.47507   3.48713
 Alpha virt. eigenvalues --    3.55704   3.75473   3.77873   3.88066   3.91881
 Alpha virt. eigenvalues --    4.05445   4.10058   4.11621   4.15416   4.28057
 Alpha virt. eigenvalues --    4.58035   5.20977   5.24022   5.31899   5.36822
 Alpha virt. eigenvalues --    5.70330   6.02130  23.58682  23.73459  23.81228
 Alpha virt. eigenvalues --   23.82296  23.86110  23.97843  35.41583  50.08912
 Alpha virt. eigenvalues --   50.17534
          Condensed to atoms (all electrons):
              1          2          3          4          5          6
     1  C    6.110427   0.450935   0.404355  -0.239832  -0.038430   0.025767
     2  H    0.450935   0.448754  -0.029782   0.010526   0.004559  -0.007160
     3  H    0.404355  -0.029782   0.449277  -0.099822  -0.005257  -0.005118
     4  C   -0.239832   0.010526  -0.099822   6.836966   0.534408   0.296190
     5  H   -0.038430   0.004559  -0.005257   0.534408   0.372154  -0.027156
     6  H    0.025767  -0.007160  -0.005118   0.296190  -0.027156   0.466957
     7  C   -0.033588  -0.043251   0.050656  -0.866479  -0.114727   0.036826
     8  H    0.023178  -0.000137  -0.000289  -0.154739  -0.002051   0.005180
     9  H   -0.015818   0.000488   0.000198   0.075711   0.001688  -0.004032
    10  C   -0.080668  -0.005026   0.004755   0.190623  -0.006558  -0.044326
    11  H   -0.000372   0.000114  -0.000075  -0.017738   0.001329   0.001648
    12  H    0.012180  -0.000141   0.000055  -0.001552  -0.006054   0.001504
    13  N   -0.010883   0.000061   0.000176   0.004843  -0.000172   0.000337
    14  H    0.000709  -0.000001   0.000000   0.002693  -0.000033  -0.000002
    15  H    0.000291  -0.000009   0.000002   0.002353  -0.000037   0.000155
    16  H   -0.001145   0.000007  -0.000006   0.007896   0.000221  -0.000069
    17  C   -0.070665  -0.071885  -0.018606  -0.117038  -0.015764   0.010123
    18  H    0.013105  -0.006258   0.005126  -0.034934   0.000670  -0.000448
    19  H   -0.120674  -0.003606  -0.002995   0.047969  -0.000626  -0.000180
    20  H   -0.006030   0.005045  -0.006278  -0.020863   0.002546   0.000209
    21  O    0.000705  -0.000016   0.000004   0.014270  -0.000853   0.000214
    22  C   -0.008380   0.000298  -0.000025   0.025644   0.005463  -0.000988
    23  H   -0.001718   0.000000   0.000000  -0.002586   0.000692  -0.000018
    24  O   -0.030905  -0.000247   0.000358   0.047847  -0.010232  -0.002286
              7          8          9         10         11         12
     1  C   -0.033588   0.023178  -0.015818  -0.080668  -0.000372   0.012180
     2  H   -0.043251  -0.000137   0.000488  -0.005026   0.000114  -0.000141
     3  H    0.050656  -0.000289   0.000198   0.004755  -0.000075   0.000055
     4  C   -0.866479  -0.154739   0.075711   0.190623  -0.017738  -0.001552
     5  H   -0.114727  -0.002051   0.001688  -0.006558   0.001329  -0.006054
     6  H    0.036826   0.005180  -0.004032  -0.044326   0.001648   0.001504
     7  C    8.032231   0.662831   0.242272  -1.191406   0.048049  -0.033879
     8  H    0.662831   0.425990  -0.049656  -0.092177   0.001819   0.006579
     9  H    0.242272  -0.049656   0.486222   0.003443  -0.004785   0.000432
    10  C   -1.191406  -0.092177   0.003443   9.598268   0.194336   0.673402
    11  H    0.048049   0.001819  -0.004785   0.194336   0.475292  -0.082796
    12  H   -0.033879   0.006579   0.000432   0.673402  -0.082796   0.514806
    13  N   -0.098277   0.001325  -0.004219  -0.467951   0.034871  -0.092912
    14  H   -0.000225   0.000319  -0.000536   0.047371  -0.007889   0.011533
    15  H   -0.026005   0.000999   0.006711   0.067502  -0.017437   0.015013
    16  H   -0.010559  -0.003463  -0.000986  -0.098567   0.007158  -0.029339
    17  C    0.113454   0.016185   0.001155   0.000507  -0.001993   0.004459
    18  H   -0.019856  -0.003050   0.003617   0.003093  -0.000042   0.000112
    19  H    0.011288  -0.000090  -0.000250   0.000187   0.000000   0.000016
    20  H   -0.002931   0.000359  -0.000221  -0.004503   0.000022  -0.000353
    21  O   -0.044418  -0.002796   0.000403   0.157671  -0.006007   0.055551
    22  C    0.025643  -0.006706   0.004730  -0.231530   0.011585   0.015076
    23  H   -0.014977  -0.001614   0.000087   0.004079   0.000785  -0.026353
    24  O   -0.539364  -0.108867   0.035519  -1.466644   0.096808  -0.408705
             13         14         15         16         17         18
     1  C   -0.010883   0.000709   0.000291  -0.001145  -0.070665   0.013105
     2  H    0.000061  -0.000001  -0.000009   0.000007  -0.071885  -0.006258
     3  H    0.000176   0.000000   0.000002  -0.000006  -0.018606   0.005126
     4  C    0.004843   0.002693   0.002353   0.007896  -0.117038  -0.034934
     5  H   -0.000172  -0.000033  -0.000037   0.000221  -0.015764   0.000670
     6  H    0.000337  -0.000002   0.000155  -0.000069   0.010123  -0.000448
     7  C   -0.098277  -0.000225  -0.026005  -0.010559   0.113454  -0.019856
     8  H    0.001325   0.000319   0.000999  -0.003463   0.016185  -0.003050
     9  H   -0.004219  -0.000536   0.006711  -0.000986   0.001155   0.003617
    10  C   -0.467951   0.047371   0.067502  -0.098567   0.000507   0.003093
    11  H    0.034871  -0.007889  -0.017437   0.007158  -0.001993  -0.000042
    12  H   -0.092912   0.011533   0.015013  -0.029339   0.004459   0.000112
    13  N    7.178762   0.252654   0.246832   0.312098   0.001988  -0.000849
    14  H    0.252654   0.309470  -0.011604  -0.013908  -0.000126  -0.000004
    15  H    0.246832  -0.011604   0.384672  -0.046107   0.002611   0.000029
    16  H    0.312098  -0.013908  -0.046107   0.296600  -0.004373   0.000191
    17  C    0.001988  -0.000126   0.002611  -0.004373   5.959997   0.369754
    18  H   -0.000849  -0.000004   0.000029   0.000191   0.369754   0.467439
    19  H   -0.000008   0.000000   0.000000   0.000000   0.422077  -0.030041
    20  H    0.000017   0.000000  -0.000008   0.000036   0.387494  -0.029609
    21  O   -0.033740  -0.010127   0.011843  -0.004304   0.000640   0.000055
    22  C    0.049476  -0.009237  -0.006294   0.008282  -0.006264   0.000096
    23  H    0.004857  -0.001033   0.000007   0.001117  -0.000258   0.000031
    24  O    0.201579  -0.019044  -0.035568   0.093307  -0.026330   0.000008
             19         20         21         22         23         24
     1  C   -0.120674  -0.006030   0.000705  -0.008380  -0.001718  -0.030905
     2  H   -0.003606   0.005045  -0.000016   0.000298   0.000000  -0.000247
     3  H   -0.002995  -0.006278   0.000004  -0.000025   0.000000   0.000358
     4  C    0.047969  -0.020863   0.014270   0.025644  -0.002586   0.047847
     5  H   -0.000626   0.002546  -0.000853   0.005463   0.000692  -0.010232
     6  H   -0.000180   0.000209   0.000214  -0.000988  -0.000018  -0.002286
     7  C    0.011288  -0.002931  -0.044418   0.025643  -0.014977  -0.539364
     8  H   -0.000090   0.000359  -0.002796  -0.006706  -0.001614  -0.108867
     9  H   -0.000250  -0.000221   0.000403   0.004730   0.000087   0.035519
    10  C    0.000187  -0.004503   0.157671  -0.231530   0.004079  -1.466644
    11  H    0.000000   0.000022  -0.006007   0.011585   0.000785   0.096808
    12  H    0.000016  -0.000353   0.055551   0.015076  -0.026353  -0.408705
    13  N   -0.000008   0.000017  -0.033740   0.049476   0.004857   0.201579
    14  H    0.000000   0.000000  -0.010127  -0.009237  -0.001033  -0.019044
    15  H    0.000000  -0.000008   0.011843  -0.006294   0.000007  -0.035568
    16  H    0.000000   0.000036  -0.004304   0.008282   0.001117   0.093307
    17  C    0.422077   0.387494   0.000640  -0.006264  -0.000258  -0.026330
    18  H   -0.030041  -0.029609   0.000055   0.000096   0.000031   0.000008
    19  H    0.443114  -0.026397   0.000012   0.000129   0.000000   0.000475
    20  H   -0.026397   0.430434  -0.000098   0.001076  -0.000032  -0.002774
    21  O    0.000012  -0.000098   8.308138   0.328940  -0.077628  -0.217556
    22  C    0.000129   0.001076   0.328940   5.242678   0.468588   0.075714
    23  H    0.000000  -0.000032  -0.077628   0.468588   0.552273  -0.095933
    24  O    0.000475  -0.002774  -0.217556   0.075714  -0.095933  10.544984
 Mulliken atomic charges:
              1
     1  C   -0.382544
     2  H    0.246732
     3  H    0.253290
     4  C   -0.542357
     5  H    0.304221
     6  H    0.246672
     7  C   -0.183310
     8  H    0.280870
     9  H    0.217827
    10  C   -1.255881
    11  H    0.265315
    12  H    0.371366
    13  N   -0.580864
    14  H    0.449021
    15  H    0.404050
    16  H    0.485914
    17  C   -0.957144
    18  H    0.261766
    19  H    0.259602
    20  H    0.272858
    21  O   -0.480904
    22  C    0.006006
    23  H    0.189633
    24  O   -0.132144
 Sum of Mulliken atomic charges =   0.00000
 Mulliken charges with hydrogens summed into heavy atoms:
              1
     1  C    0.117479
     4  C    0.008537
     7  C    0.315387
    10  C   -0.619200
    13  N    0.758122
    17  C   -0.162917
    21  O   -0.480904
    22  C    0.195640
    24  O   -0.132144
 Sum of Mulliken charges with hydrogens summed into heavy atoms =   0.00000
 Electronic spatial extent (au):  <R**2>=           1592.0048
 Charge=              0.0000 electrons
 Dipole moment (field-independent basis, Debye):
    X=              0.4167    Y=              5.8785    Z=              0.4979  Tot=              5.9142
 Quadrupole moment (field-independent basis, Debye-Ang):
   XX=            -62.8857   YY=            -53.2500   ZZ=            -56.8998
   XY=             14.2834   XZ=             -0.6823   YZ=              6.1205
 Traceless Quadrupole moment (field-independent basis, Debye-Ang):
   XX=             -5.2072   YY=              4.4285   ZZ=              0.7787
   XY=             14.2834   XZ=             -0.6823   YZ=              6.1205
 Octapole moment (field-independent basis, Debye-Ang**2):
  XXX=              1.0698  YYY=             15.6843  ZZZ=              4.5849  XYY=             17.9462
  XXY=             36.8420  XXZ=             -6.3605  XZZ=             10.3055  YZZ=              3.7472
  YYZ=              3.0088  XYZ=             11.1075
 Hexadecapole moment (field-independent basis, Debye-Ang**3):
 XXXX=          -1525.5700 YYYY=           -422.6338 ZZZZ=           -225.1818 XXXY=            118.9047
 XXXZ=            -12.4737 YYYX=             37.3028 YYYZ=             31.0016 ZZZX=             15.0022
 ZZZY=             12.1775 XXYY=           -303.0215 XXZZ=           -275.5434 YYZZ=           -109.6885
 XXYZ=             30.9959 YYXZ=              4.2651 ZZXY=              6.2218
 N-N= 5.164795738816D+02 E-N=-2.068268199368D+03  KE= 4.426201266226D+02
 Calling FoFJK, ICntrl=      2127 FMM=F ISym2X=0 I1Cent= 0 IOpClX= 0 NMat=1 NMatS=1 NMatT=0.
 ***** Axes restored to original set *****
 -------------------------------------------------------------------
 Center     Atomic                   Forces (Hartrees/Bohr)
 Number     Number              X              Y              Z
 -------------------------------------------------------------------
      1        6           0.018846020    0.023554023   -0.003762571
      2        1           0.000273102   -0.017044420    0.003715102
      3        1          -0.016174118   -0.001485955   -0.000383904
      4        6           0.008716055   -0.027071383   -0.016720962
      5        1          -0.004732100    0.008046365   -0.000939067
      6        1          -0.007534061   -0.003118049    0.016212326
      7        6          -0.011093207   -0.004645518    0.030032364
      8        1           0.008487029   -0.005255456   -0.004964008
      9        1           0.001337007   -0.023994016    0.006037273
     10        6           0.012298309   -0.107602055    0.097280590
     11        1           0.002360356   -0.020011662    0.025387974
     12        1           0.003635442   -0.024482886    0.089758308
     13        7          -0.008959129   -0.014956879    0.012113926
     14        1           0.010538148    0.011759998    0.007385979
     15        1           0.011158312   -0.018428427    0.003536376
     16        1           0.008813426    0.016069105   -0.019847804
     17        6          -0.014158655   -0.010946749    0.018980162
     18        1           0.012128405   -0.001654805   -0.005826765
     19        1          -0.003161321   -0.007354256   -0.013797924
     20        1          -0.001002615    0.014609156   -0.005395304
     21        8          -0.011419801    0.008718328    0.013023552
     22        6           0.041481145   -0.003846456   -0.056369790
     23        1          -0.010499067    0.019890945    0.005772980
     24        8          -0.051338683    0.189251051   -0.201228811
 -------------------------------------------------------------------
 Cartesian Forces:  Max     0.201228811 RMS     0.041464866

 GradGradGradGradGradGradGradGradGradGradGradGradGradGradGradGradGradGrad
 Berny optimization.
 Internal  Forces:  Max     0.340879329 RMS     0.047930758
 Search for a local minimum.
 Step number   1 out of a maximum of  125
 All quantities printed in internal units (Hartrees-Bohrs-Radians)
 Mixed Optimization -- RFO/linear search
 Second derivative matrix not updated -- first step.
     Eigenvalues ---    0.00230   0.00237   0.00237   0.00237   0.00237
     Eigenvalues ---    0.00499   0.00766   0.03565   0.03565   0.03840
     Eigenvalues ---    0.03840   0.03840   0.03871   0.04896   0.04896
     Eigenvalues ---    0.04896   0.04915   0.05720   0.05720   0.06065
     Eigenvalues ---    0.06065   0.06225   0.07655   0.07655   0.07655
     Eigenvalues ---    0.11495   0.11701   0.11701   0.11701   0.16000
     Eigenvalues ---    0.16000   0.16000   0.16000   0.16000   0.16000
     Eigenvalues ---    0.16000   0.16000   0.18193   0.21948   0.21948
     Eigenvalues ---    0.21948   0.22000   0.25000   0.27509   0.28519
     Eigenvalues ---    0.28519   0.28519   0.28519   0.35740   0.37230
     Eigenvalues ---    0.37230   0.37230   0.37230   0.37230   0.37230
     Eigenvalues ---    0.37230   0.37230   0.37230   0.37230   0.37230
     Eigenvalues ---    0.37230   0.47688   0.47688   0.47688   0.80209
     Eigenvalues ---    0.802091000.000001000.000001000.000001000.00000
     Eigenvalues --- 1000.000001000.000001000.000001000.000001000.00000
     Eigenvalues --- 1000.000001000.000001000.000001000.000001000.00000
     Eigenvalues --- 1000.000001000.000001000.000001000.000001000.00000
     Eigenvalues --- 1000.000001000.000001000.000001000.000001000.00000
     Eigenvalues --- 1000.000001000.000001000.000001000.000001000.00000
     Eigenvalues --- 1000.000001000.000001000.000001000.000001000.00000
     Eigenvalues --- 1000.000001000.000001000.000001000.000001000.00000
     Eigenvalues --- 1000.000001000.000001000.000001000.000001000.00000
     Eigenvalues --- 1000.000001000.000001000.000001000.000001000.00000
 RFO step:  Lambda=-4.00061548D-01 EMin= 2.30000000D-03
 Linear search not attempted -- first point.
 Maximum step size (   0.300) exceeded in Quadratic search.
    -- Step size scaled by   0.382
 Iteration  1 RMS(Cart)=  0.12537530 RMS(Int)=  0.00628701
 Iteration  2 RMS(Cart)=  0.01967837 RMS(Int)=  0.00017835
 Iteration  3 RMS(Cart)=  0.00029062 RMS(Int)=  0.00007327
 Iteration  4 RMS(Cart)=  0.00000011 RMS(Int)=  0.00007327
 Variable       Old X    -DE/DX   Delta X   Delta X   Delta X     New X
                                 (Linear)    (Quad)   (Total)
    R1        2.02201   0.01707   0.00000   0.00845   0.00845   2.03045
    R2        2.02201   0.01593   0.00000   0.00788   0.00788   2.02989
    R3        2.91018   0.00594   0.00000   0.00331   0.00331   2.91349
    R4        2.91018   0.00143   0.00000   0.00080   0.00080   2.91097
    R5        2.02201   0.00888   0.00000   0.00440   0.00440   2.02640
    R6        2.02201   0.01812   0.00000   0.00896   0.00896   2.03097
    R7        2.91018   0.00495   0.00000   0.00276   0.00276   2.91294
    R8        2.02201   0.00664   0.00000   0.00328   0.00328   2.02529
    R9        2.02201   0.02441   0.00000   0.01208   0.01208   2.03409
   R10        2.91018   0.02061   0.00000   0.01150   0.01150   2.92167
   R11        2.02201   0.02607   0.00000   0.01290   0.01290   2.03491
   R12        2.02201   0.22001   0.00000   0.10887   0.10887   2.13087
   R13        2.77790   0.02220   0.00000   0.01120   0.01120   2.78910
   R14        2.19925   0.25879   0.00000   0.14650   0.14650   2.34574
   R15        1.88973   0.01613   0.00000   0.00703   0.00703   1.89676
   R16        1.88973   0.02076   0.00000   0.00905   0.00905   1.89877
   R17        1.88973   0.02493   0.00000   0.01086   0.01086   1.90059
   R18        2.02201   0.01184   0.00000   0.00586   0.00586   2.02787
   R19        2.02201   0.01539   0.00000   0.00762   0.00762   2.02962
   R20        2.02201   0.01530   0.00000   0.00757   0.00757   2.02958
   R21        2.37803  -0.01142   0.00000  -0.00363  -0.00363   2.37440
   R22        2.02201   0.02265   0.00000   0.01121   0.01121   2.03321
   R23        2.37803   0.03007   0.00000   0.00956   0.00956   2.38759
    A1        1.91063   0.00130   0.00000  -0.00008  -0.00010   1.91053
    A2        1.91063  -0.00410   0.00000  -0.00208  -0.00209   1.90855
    A3        1.91063  -0.00425   0.00000  -0.00220  -0.00221   1.90842
    A4        1.91063  -0.00631   0.00000  -0.00400  -0.00400   1.90664
    A5        1.91063  -0.00655   0.00000  -0.00420  -0.00419   1.90644
    A6        1.91063   0.01992   0.00000   0.01256   0.01256   1.92320
    A7        1.91063  -0.00559   0.00000  -0.00321  -0.00323   1.90741
    A8        1.91063  -0.00593   0.00000  -0.00381  -0.00380   1.90684
    A9        1.91063   0.01941   0.00000   0.01218   0.01219   1.92282
   A10        1.91063   0.00213   0.00000   0.00064   0.00063   1.91126
   A11        1.91063  -0.00261   0.00000  -0.00096  -0.00097   1.90967
   A12        1.91063  -0.00741   0.00000  -0.00485  -0.00484   1.90579
   A13        1.91063   0.00187   0.00000   0.00287   0.00284   1.91347
   A14        1.91063  -0.01455   0.00000  -0.01042  -0.01040   1.90024
   A15        1.91063   0.02290   0.00000   0.01441   0.01440   1.92503
   A16        1.91063   0.00199   0.00000   0.00032   0.00032   1.91095
   A17        1.91063  -0.00552   0.00000  -0.00257  -0.00264   1.90799
   A18        1.91063  -0.00669   0.00000  -0.00460  -0.00456   1.90607
   A19        1.91063  -0.02457   0.00000  -0.01869  -0.01886   1.89177
   A20        1.91063   0.07695   0.00000   0.05877   0.05880   1.96943
   A21        1.91063  -0.01883   0.00000  -0.01237  -0.01214   1.89850
   A22        1.91063  -0.00407   0.00000  -0.00218  -0.00228   1.90835
   A23        1.91063   0.01328   0.00000   0.00653   0.00625   1.91688
   A24        1.91063  -0.04276   0.00000  -0.03207  -0.03194   1.87869
   A25        1.93329   0.34088   0.00000   0.20041   0.20041   2.13370
   A26        1.91063   0.00440   0.00000   0.00287   0.00286   1.91349
   A27        1.91063   0.01081   0.00000   0.00773   0.00772   1.91835
   A28        1.91063  -0.00698   0.00000  -0.00498  -0.00498   1.90566
   A29        1.91063  -0.00394   0.00000  -0.00225  -0.00228   1.90836
   A30        1.91063  -0.00467   0.00000  -0.00389  -0.00389   1.90674
   A31        1.91063   0.00037   0.00000   0.00052   0.00053   1.91117
   A32        1.91063   0.00740   0.00000   0.00507   0.00506   1.91569
   A33        1.91063   0.00389   0.00000   0.00262   0.00262   1.91325
   A34        1.91063   0.00201   0.00000   0.00138   0.00138   1.91201
   A35        1.91063  -0.00585   0.00000  -0.00402  -0.00403   1.90661
   A36        1.91063  -0.00423   0.00000  -0.00283  -0.00283   1.90780
   A37        1.91063  -0.00322   0.00000  -0.00223  -0.00223   1.90840
   A38        2.09440  -0.00795   0.00000  -0.00496  -0.00510   2.08929
   A39        2.09440   0.01393   0.00000   0.00858   0.00845   2.10284
   A40        2.09440  -0.00598   0.00000  -0.00362  -0.00376   2.09064
   A41        1.52038   0.07110   0.00000   0.04852   0.04852   1.56890
    D1        3.14159   0.00545   0.00000   0.00429   0.00429  -3.13731
    D2       -1.04720   0.00100   0.00000   0.00078   0.00078  -1.04641
    D3        1.04720   0.00018   0.00000  -0.00003  -0.00003   1.04717
    D4       -1.04720   0.00066   0.00000   0.00047   0.00047  -1.04673
    D5        1.04720  -0.00379   0.00000  -0.00304  -0.00304   1.04416
    D6        3.14159  -0.00461   0.00000  -0.00385  -0.00385   3.13774
    D7        1.04720   0.00097   0.00000   0.00056   0.00056   1.04775
    D8        3.14159  -0.00348   0.00000  -0.00295  -0.00295   3.13865
    D9       -1.04720  -0.00430   0.00000  -0.00375  -0.00376  -1.05096
   D10       -1.04720  -0.00217   0.00000  -0.00166  -0.00166  -1.04886
   D11        1.04720  -0.00243   0.00000  -0.00188  -0.00187   1.04532
   D12        3.14159  -0.00276   0.00000  -0.00215  -0.00215   3.13944
   D13        3.14159   0.00286   0.00000   0.00236   0.00235  -3.13924
   D14       -1.04720   0.00260   0.00000   0.00214   0.00214  -1.04506
   D15        1.04720   0.00227   0.00000   0.00187   0.00186   1.04906
   D16        1.04720   0.00240   0.00000   0.00214   0.00214   1.04934
   D17        3.14159   0.00214   0.00000   0.00193   0.00193  -3.13966
   D18       -1.04720   0.00181   0.00000   0.00165   0.00165  -1.04554
   D19        1.04720  -0.00275   0.00000  -0.00218  -0.00219   1.04501
   D20       -1.04720   0.00258   0.00000   0.00205   0.00205  -1.04515
   D21        3.14159   0.00566   0.00000   0.00525   0.00529  -3.13631
   D22       -1.04720  -0.00619   0.00000  -0.00512  -0.00514  -1.05234
   D23        3.14159  -0.00087   0.00000  -0.00089  -0.00090   3.14069
   D24        1.04720   0.00221   0.00000   0.00231   0.00234   1.04953
   D25        3.14159  -0.00267   0.00000  -0.00235  -0.00237   3.13922
   D26        1.04720   0.00266   0.00000   0.00188   0.00187   1.04906
   D27       -1.04720   0.00574   0.00000   0.00508   0.00511  -1.04209
   D28        1.04720   0.00324   0.00000   0.00295   0.00285   1.05005
   D29       -1.04720  -0.02385   0.00000  -0.01892  -0.01891  -1.06611
   D30        3.14159  -0.00707   0.00000  -0.00807  -0.00798   3.13361
   D31        3.14159   0.01616   0.00000   0.01371   0.01361  -3.12798
   D32        1.04720  -0.01092   0.00000  -0.00816  -0.00815   1.03904
   D33       -1.04720   0.00586   0.00000   0.00269   0.00278  -1.04442
   D34       -1.04720   0.01113   0.00000   0.00972   0.00962  -1.03758
   D35        3.14159  -0.01596   0.00000  -0.01216  -0.01214   3.12945
   D36        1.04720   0.00082   0.00000  -0.00130  -0.00121   1.04599
   D37       -0.35269  -0.01919   0.00000  -0.01983  -0.01940  -0.37209
   D38       -2.44709  -0.03372   0.00000  -0.03159  -0.03173  -2.47882
   D39        1.74170  -0.02132   0.00000  -0.01862  -0.01891   1.72279
   D40        3.14159   0.02737   0.00000   0.02170   0.02175  -3.11984
   D41       -1.04720   0.03187   0.00000   0.02543   0.02550  -1.02170
   D42        1.04720   0.03467   0.00000   0.02775   0.02781   1.07501
   D43       -1.04720  -0.00612   0.00000  -0.00476  -0.00482  -1.05202
   D44        1.04720  -0.00162   0.00000  -0.00103  -0.00107   1.04612
   D45       -3.14159   0.00118   0.00000   0.00129   0.00124  -3.14035
   D46        1.04720  -0.02915   0.00000  -0.02307  -0.02309   1.02411
   D47        3.14159  -0.02466   0.00000  -0.01934  -0.01934   3.12225
   D48       -1.04720  -0.02186   0.00000  -0.01702  -0.01703  -1.06423
   D49       -2.45171   0.00793   0.00000   0.00754   0.00754  -2.44417
   D50        1.36615  -0.02617   0.00000  -0.02296  -0.02295   1.34320
   D51       -1.77544   0.00893   0.00000   0.00783   0.00783  -1.76762
         Item               Value     Threshold  Converged?
 Maximum Force            0.340879     0.000450     NO 
 RMS     Force            0.047931     0.000300     NO 
 Maximum Displacement     0.654673     0.001800     NO 
 RMS     Displacement     0.142507     0.001200     NO 
 Predicted change in Energy=-1.416811D-01
 GradGradGradGradGradGradGradGradGradGradGradGradGradGradGradGradGradGrad

                          Input orientation:                          
 ---------------------------------------------------------------------
 Center     Atomic      Atomic             Coordinates (Angstroms)
 Number     Number       Type             X           Y           Z
 ---------------------------------------------------------------------
      1          6           0       -2.158864   -0.873376    0.109877
      2          1           0       -1.924428   -1.883707    0.390515
      3          1           0       -3.224849   -0.758117    0.044813
      4          6           0       -1.607331    0.094079    1.176105
      5          1           0       -1.845596    1.101713    0.897202
      6          1           0       -2.057166   -0.131348    2.125792
      7          6           0       -0.077678   -0.057703    1.291106
      8          1           0        0.378151    0.163329    0.346656
      9          1           0        0.151549   -1.071179    1.572071
     10          6           0        0.477630    0.905920    2.365088
     11          1           0        0.020704    0.662091    3.309188
     12          1           0        0.281373    1.989854    2.124106
     13          7           0        1.939704    0.725330    2.455021
     14          1           0        2.311400    1.331083    3.163793
     15          1           0        2.153056   -0.228690    2.687238
     16          1           0        2.356402    0.956556    1.569342
     17          6           0       -1.530600   -0.566184   -1.262644
     18          1           0       -0.465082   -0.681141   -1.207837
     19          1           0       -1.922292   -1.243591   -1.998333
     20          1           0       -1.764782    0.442550   -1.547433
     21          8           0        2.009813    3.323738    1.152316
     22          6           0        0.756053    3.403956    1.172133
     23          1           0        0.285451    4.346371    1.391255
     24          8           0        0.044959    2.379455    0.969472
 ---------------------------------------------------------------------
                    Distance matrix (angstroms):
                    1          2          3          4          5
     1  C    0.000000
     2  H    1.074470   0.000000
     3  H    1.074170   1.754296   0.000000
     4  C    1.541752   2.151590   2.149982   0.000000
     5  H    2.149185   3.029138   2.467362   1.072326   0.000000
     6  H    2.150549   2.469730   2.467144   1.074744   1.753464
     7  C    2.528232   2.748789   3.456662   1.541461   2.150568
     8  H    2.750867   3.081258   3.731191   2.152887   2.475625
     9  H    2.741376   2.523085   3.718950   2.146690   3.027457
    10  C    3.899098   4.177420   4.675580   2.533738   2.755069
    11  H    4.164584   4.333968   4.817338   2.742841   3.081237
    12  H    4.267313   4.782821   4.916137   2.838992   2.611147
    13  N    4.985360   5.099095   5.889170   3.823031   4.110592
    14  H    5.845452   5.997349   6.689010   4.564816   4.740324
    15  H    5.064688   4.963859   6.015361   4.065491   4.578583
    16  H    5.085893   5.270885   6.034455   4.075498   4.257890
    17  C    1.540421   2.150326   2.148665   2.527713   2.747005
    18  H    2.154581   2.476001   3.031727   2.754792   3.084733
    19  H    2.153503   2.473125   2.471191   3.459136   3.726991
    20  H    2.152589   3.031930   2.471567   2.750252   2.533233
    21  O    6.006689   6.570850   6.729769   4.849226   4.457202
    22  C    5.284004   5.979572   5.868670   4.067049   3.484894
    23  H    5.904436   6.685725   6.339631   4.659496   3.913216
    24  O    4.022020   4.731620   4.625040   2.827668   2.282990
                    6          7          8          9         10
     6  H    0.000000
     7  C    2.149534   0.000000
     8  H    3.030335   1.071737   0.000000
     9  H    2.463394   1.076392   1.754138   0.000000
    10  C    2.749250   1.546083   2.153000   2.155023   0.000000
    11  H    2.519427   2.144863   3.025414   2.457422   1.076828
    12  H    3.157256   2.239486   2.550469   3.113121   1.127610
    13  N    4.100885   2.457167   2.683188   2.684128   1.475927
    14  H    4.722343   3.338170   3.610729   3.601305   2.044849
    15  H    4.248607   2.637157   2.963493   2.441191   2.048944
    16  H    4.579602   2.651580   2.457162   2.995512   2.040971
    17  C    3.456567   2.981807   2.601032   3.334704   4.400059
    18  H    3.734981   2.604510   1.959750   2.874065   4.021599
    19  H    4.273603   3.953396   3.573575   4.132593   5.423972
    20  H    3.729267   3.339742   2.873621   3.961692   4.533315
    21  O    5.424536   3.976307   3.646860   4.790055   3.108737
    22  C    4.617580   3.562631   3.365395   4.533454   2.782238
    23  H    5.106601   4.420154   4.312496   5.422220   3.580781
    24  O    3.472771   2.461347   2.325969   3.504478   2.075153
                   11         12         13         14         15
    11  H    0.000000
    12  H    1.798700   0.000000
    13  N    2.101467   2.111537   0.000000
    14  H    2.390812   2.374014   1.003720   0.000000
    15  H    2.393165   2.956730   1.004787   1.638618   0.000000
    16  H    2.927330   2.383529   1.005749   1.638466   1.641905
    17  C    4.981651   4.613746   5.247099   6.160676   5.411542
    18  H    4.737486   4.335119   4.601922   5.555992   4.714973
    19  H    5.964615   5.683821   6.214823   7.155463   6.292302
    20  H    5.179086   4.478962   5.461028   6.292886   5.807965
    21  O    3.961441   2.389796   2.907522   2.847397   3.872499
    22  C    3.553247   1.769536   3.197166   3.268427   4.176515
    23  H    4.162028   2.467845   4.120691   4.042069   5.108689
    24  O    2.902447   1.241315   2.921138   3.324288   3.767919
                   16         17         18         19         20
    16  H    0.000000
    17  C    5.044567   0.000000
    18  H    4.284337   1.073101   0.000000
    19  H    5.989672   1.074031   1.750627   0.000000
    20  H    5.192556   1.074007   1.751350   1.752482   0.000000
    21  O    2.428494   5.787749   5.266354   6.800627   5.462367
    22  C    2.951043   5.188346   4.882975   6.230978   4.745585
    23  H    3.976354   5.871492   5.709156   6.900081   5.298978
    24  O    2.779794   4.017650   3.790523   5.079804   3.655349
                   21         22         23         24
    21  O    0.000000
    22  C    1.256479   0.000000
    23  H    2.018983   1.075931   0.000000
    24  O    2.187636   1.263459   2.025956   0.000000
 Stoichiometry    C6H15NO2
 Framework group  C1[X(C6H15NO2)]
 Deg. of freedom    66
 Full point group                 C1      NOp   1
 Largest Abelian subgroup         C1      NOp   1
 Largest concise Abelian subgroup C1      NOp   1
                         Standard orientation:                         
 ---------------------------------------------------------------------
 Center     Atomic      Atomic             Coordinates (Angstroms)
 Number     Number       Type             X           Y           Z
 ---------------------------------------------------------------------
      1          6           0       -2.991689    0.014586   -0.256530
      2          1           0       -3.385293    0.962284    0.061952
      3          1           0       -3.648731   -0.418416   -0.987725
      4          6           0       -1.599770    0.224776   -0.885323
      5          1           0       -1.209804   -0.721032   -1.206659
      6          1           0       -1.688457    0.882344   -1.730790
      7          6           0       -0.640017    0.851247    0.145458
      8          1           0       -0.548237    0.201934    0.993155
      9          1           0       -1.038991    1.799800    0.461191
     10          6           0        0.754830    1.070342   -0.484442
     11          1           0        0.647428    1.734714   -1.325055
     12          1           0        1.236288    0.109842   -0.826702
     13          7           0        1.641695    1.680110    0.525516
     14          1           0        2.546137    1.846897    0.123496
     15          1           0        1.252430    2.550760    0.841804
     16          1           0        1.736129    1.051662    1.305045
     17          6           0       -2.890064   -0.929381    0.956523
     18          1           0       -2.236979   -0.503571    1.693892
     19          1           0       -3.864260   -1.070896    1.386006
     20          1           0       -2.498882   -1.878684    0.641419
     21          8           0        2.882921   -0.949092    0.543840
     22          6           0        2.110392   -1.356121   -0.359635
     23          1           0        2.490534   -1.992354   -1.139588
     24          8           0        0.899171   -0.997002   -0.377135
 ---------------------------------------------------------------------
 Rotational constants (GHZ):      2.4242892      0.8178359      0.7049377
 Standard basis: 6-311+G(d) (5D, 7F)
 There are   243 symmetry adapted basis functions of A   symmetry.
 Integral buffers will be    131072 words long.
 Raffenetti 2 integral format.
 Two-electron integral symmetry is turned on.
   243 basis functions,   399 primitive gaussians,   252 cartesian basis functions
    37 alpha electrons       37 beta electrons
       nuclear repulsion energy       500.0112562118 Hartrees.
 NAtoms=   24 NActive=   24 NUniq=   24 SFac= 7.50D-01 NAtFMM=   80 NAOKFM=F Big=F
 One-electron integrals computed using PRISM.
 NBasis=   243 RedAO= T  NBF=   243
 NBsUse=   243 1.00D-06 NBFU=   243
 Initial guess read from the read-write file.
 B after Tr=     0.000000    0.000000    0.000000
         Rot=    1.000000    0.000000    0.000000    0.000000 Ang=   0.00 deg.
 Initial guess orbital symmetries:
       Occupied  (A) (A) (A) (A) (A) (A) (A) (A) (A) (A) (A) (A)
                 (A) (A) (A) (A) (A) (A) (A) (A) (A) (A) (A) (A)
                 (A) (A) (A) (A) (A) (A) (A) (A) (A) (A) (A) (A)
                 (A)
       Virtual   (A) (A) (A) (A) (A) (A) (A) (A) (A) (A) (A) (A)
                 (A) (A) (A) (A) (A) (A) (A) (A) (A) (A) (A) (A)
                 (A) (A) (A) (A) (A) (A) (A) (A) (A) (A) (A) (A)
                 (A) (A) (A) (A) (A) (A) (A) (A) (A) (A) (A) (A)
                 (A) (A) (A) (A) (A) (A) (A) (A) (A) (A) (A) (A)
                 (A) (A) (A) (A) (A) (A) (A) (A) (A) (A) (A) (A)
                 (A) (A) (A) (A) (A) (A) (A) (A) (A) (A) (A) (A)
                 (A) (A) (A) (A) (A) (A) (A) (A) (A) (A) (A) (A)
                 (A) (A) (A) (A) (A) (A) (A) (A) (A) (A) (A) (A)
                 (A) (A) (A) (A) (A) (A) (A) (A) (A) (A) (A) (A)
                 (A) (A) (A) (A) (A) (A) (A) (A) (A) (A) (A) (A)
                 (A) (A) (A) (A) (A) (A) (A) (A) (A) (A) (A) (A)
                 (A) (A) (A) (A) (A) (A) (A) (A) (A) (A) (A) (A)
                 (A) (A) (A) (A) (A) (A) (A) (A) (A) (A) (A) (A)
                 (A) (A) (A) (A) (A) (A) (A) (A) (A) (A) (A) (A)
                 (A) (A) (A) (A) (A) (A) (A) (A) (A) (A) (A) (A)
                 (A) (A) (A) (A) (A) (A) (A) (A) (A) (A) (A) (A)
                 (A) (A)
 Harris functional with IExCor= 1009 diagonalized for initial guess.
 ExpMin= 4.38D-02 ExpMax= 8.59D+03 ExpMxC= 1.30D+03 IAcc=2 IRadAn=         0 AccDes= 0.00D+00
 HarFok:  IExCor= 1009 AccDes= 0.00D+00 IRadAn=         0 IDoV= 1
 ScaDFX=  1.000000  1.000000  1.000000  1.000000
 FoFCou: FMM=F IPFlag=           0 FMFlag=      100000 FMFlg1=           0
         NFxFlg=           0 DoJE=T BraDBF=F KetDBF=T FulRan=T
         Omega=  0.000000  0.000000  1.000000  0.000000  0.000000 ICntrl=     500 IOpCl=  0
         NMat0=    1 NMatS0=    1 NMatT0=    0 NMatD0=    1 NMtDS0=    0 NMtDT0=    0
         I1Cent=           4 NGrid=           0.
 Petite list used in FoFCou.
 Requested convergence on RMS density matrix=1.00D-08 within 128 cycles.
 Requested convergence on MAX density matrix=1.00D-06.
 Requested convergence on             energy=1.00D-06.
 No special actions if energy rises.
 SCF Done:  E(RM062X) =  -442.657325992     A.U. after   14 cycles
             Convg  =    0.9853D-08             -V/T =  2.0015
 Calling FoFJK, ICntrl=      2127 FMM=F ISym2X=0 I1Cent= 0 IOpClX= 0 NMat=1 NMatS=1 NMatT=0.
 ***** Axes restored to original set *****
 -------------------------------------------------------------------
 Center     Atomic                   Forces (Hartrees/Bohr)
 Number     Number              X              Y              Z
 -------------------------------------------------------------------
      1        6           0.017683349    0.021002853   -0.004433554
      2        1          -0.000542276   -0.013915225    0.003675558
      3        1          -0.013073598   -0.001927559    0.000313976
      4        6           0.012252479   -0.020506786   -0.014020703
      5        1          -0.001825313    0.011619229   -0.000739901
      6        1          -0.006140263   -0.000722907    0.012808652
      7        6          -0.010548934    0.025284240    0.023190193
      8        1           0.006986404    0.003449311   -0.008261832
      9        1           0.003237426   -0.016068819    0.002973317
     10        6          -0.011173895   -0.050410007    0.046095153
     11        1           0.004426793   -0.012756428    0.017372050
     12        1           0.000106408   -0.054962325    0.042408843
     13        7          -0.007181838   -0.011006584    0.009419601
     14        1           0.009624995    0.010076160    0.004972402
     15        1           0.009636953   -0.014139387    0.002170871
     16        1           0.006887990    0.013266262   -0.014035039
     17        6          -0.012765015   -0.008504633    0.017911204
     18        1           0.010476910   -0.001466759   -0.005157953
     19        1          -0.002542801   -0.006147366   -0.011004736
     20        1          -0.000454629    0.011611771   -0.005121321
     21        8          -0.011957299    0.008357276    0.013551401
     22        6           0.039078872   -0.016186726   -0.039693310
     23        1          -0.007956329    0.016218686    0.005010418
     24        8          -0.034236388    0.107835721   -0.099405292
 -------------------------------------------------------------------
 Cartesian Forces:  Max     0.107835721 RMS     0.024457280

 GradGradGradGradGradGradGradGradGradGradGradGradGradGradGradGradGradGrad
 Berny optimization.
 Using GEDIIS/GDIIS optimizer.
 Internal  Forces:  Max     0.151460251 RMS     0.021398221
 Search for a local minimum.
 Step number   2 out of a maximum of  125
 All quantities printed in internal units (Hartrees-Bohrs-Radians)
 Mixed Optimization -- RFO/linear search
 Update second derivatives using D2CorX and points    1    2
 DE= -1.02D-01 DEPred=-1.42D-01 R= 7.23D-01
 SS=  1.41D+00  RLast= 3.00D-01 DXNew= 5.0454D-01 8.9999D-01
 Trust test= 7.23D-01 RLast= 3.00D-01 DXMaxT set to 5.05D-01
 Use linear search instead of GDIIS.
 Linear search step of   0.600 exceeds DXMaxT=   0.505 but not scaled.
 Quartic linear search produced a step of  2.00000.
 Iteration  1 RMS(Cart)=  0.18484037 RMS(Int)=  0.02346386
 Iteration  2 RMS(Cart)=  0.10360907 RMS(Int)=  0.00648554
 Iteration  3 RMS(Cart)=  0.02321530 RMS(Int)=  0.00050110
 Iteration  4 RMS(Cart)=  0.00052096 RMS(Int)=  0.00044063
 Iteration  5 RMS(Cart)=  0.00000019 RMS(Int)=  0.00044063
 Variable       Old X    -DE/DX   Delta X   Delta X   Delta X     New X
                                 (Linear)    (Quad)   (Total)
    R1        2.03045   0.01392   0.01689   0.00000   0.01689   2.04735
    R2        2.02989   0.01276   0.01576   0.00000   0.01576   2.04565
    R3        2.91349   0.00266   0.00662   0.00000   0.00662   2.92011
    R4        2.91097  -0.00004   0.00159   0.00000   0.00159   2.91257
    R5        2.02640   0.01153   0.00879   0.00000   0.00879   2.03519
    R6        2.03097   0.01404   0.01793   0.00000   0.01793   2.04890
    R7        2.91294  -0.00346   0.00552   0.00000   0.00552   2.91846
    R8        2.02529   0.01096   0.00657   0.00000   0.00657   2.03186
    R9        2.03409   0.01659   0.02416   0.00000   0.02416   2.05825
   R10        2.92167  -0.01174   0.02299   0.00000   0.02299   2.94466
   R11        2.03491   0.01624   0.02580   0.00000   0.02580   2.06071
   R12        2.13087   0.07816   0.21773   0.00000   0.21773   2.34861
   R13        2.78910   0.01916   0.02240   0.00000   0.02240   2.81150
   R14        2.34574   0.15146   0.29299   0.00000   0.29299   2.63874
   R15        1.89676   0.01315   0.01406   0.00000   0.01406   1.91081
   R16        1.89877   0.01598   0.01809   0.00000   0.01809   1.91686
   R17        1.90059   0.01825   0.02173   0.00000   0.02173   1.92232
   R18        2.02787   0.01030   0.01172   0.00000   0.01172   2.03959
   R19        2.02962   0.01234   0.01523   0.00000   0.01523   2.04486
   R20        2.02958   0.01237   0.01514   0.00000   0.01514   2.04472
   R21        2.37440  -0.01266  -0.00726   0.00000  -0.00726   2.36714
   R22        2.03321   0.01869   0.02241   0.00000   0.02241   2.05563
   R23        2.38759   0.01421   0.01912   0.00000   0.01912   2.40671
    A1        1.91053   0.00049  -0.00020   0.00000  -0.00029   1.91024
    A2        1.90855  -0.00312  -0.00418   0.00000  -0.00424   1.90430
    A3        1.90842  -0.00318  -0.00442   0.00000  -0.00450   1.90392
    A4        1.90664  -0.00496  -0.00799   0.00000  -0.00795   1.89869
    A5        1.90644  -0.00476  -0.00839   0.00000  -0.00835   1.89809
    A6        1.92320   0.01548   0.02513   0.00000   0.02514   1.94833
    A7        1.90741  -0.00256  -0.00645   0.00000  -0.00655   1.90085
    A8        1.90684  -0.00450  -0.00759   0.00000  -0.00754   1.89930
    A9        1.92282   0.01557   0.02437   0.00000   0.02439   1.94721
   A10        1.91126   0.00140   0.00125   0.00000   0.00116   1.91242
   A11        1.90967  -0.00477  -0.00193   0.00000  -0.00196   1.90770
   A12        1.90579  -0.00518  -0.00968   0.00000  -0.00963   1.89617
   A13        1.91347   0.00171   0.00568   0.00000   0.00549   1.91896
   A14        1.90024  -0.00318  -0.02080   0.00000  -0.02063   1.87960
   A15        1.92503   0.00457   0.02880   0.00000   0.02874   1.95377
   A16        1.91095   0.00051   0.00063   0.00000   0.00057   1.91152
   A17        1.90799  -0.00324  -0.00528   0.00000  -0.00568   1.90232
   A18        1.90607  -0.00038  -0.00913   0.00000  -0.00888   1.89719
   A19        1.89177  -0.00390  -0.03772   0.00000  -0.03881   1.85296
   A20        1.96943   0.00705   0.11760   0.00000   0.11753   2.08696
   A21        1.89850   0.00352  -0.02428   0.00000  -0.02280   1.87569
   A22        1.90835   0.00883  -0.00457   0.00000  -0.00535   1.90299
   A23        1.91688  -0.00161   0.01249   0.00000   0.01082   1.92770
   A24        1.87869  -0.01406  -0.06389   0.00000  -0.06295   1.81574
   A25        2.13370   0.12365   0.40082   0.00000   0.40082   2.53451
   A26        1.91349   0.00420   0.00572   0.00000   0.00564   1.91913
   A27        1.91835   0.01012   0.01544   0.00000   0.01539   1.93374
   A28        1.90566  -0.00581  -0.00995   0.00000  -0.00993   1.89573
   A29        1.90836  -0.00362  -0.00455   0.00000  -0.00469   1.90367
   A30        1.90674  -0.00482  -0.00778   0.00000  -0.00778   1.89896
   A31        1.91117  -0.00015   0.00106   0.00000   0.00112   1.91228
   A32        1.91569   0.00645   0.01012   0.00000   0.01008   1.92578
   A33        1.91325   0.00331   0.00524   0.00000   0.00521   1.91846
   A34        1.91201   0.00207   0.00276   0.00000   0.00274   1.91475
   A35        1.90661  -0.00506  -0.00805   0.00000  -0.00810   1.89851
   A36        1.90780  -0.00393  -0.00566   0.00000  -0.00569   1.90211
   A37        1.90840  -0.00291  -0.00446   0.00000  -0.00447   1.90394
   A38        2.08929  -0.00832  -0.01020   0.00000  -0.01100   2.07829
   A39        2.10284   0.01550   0.01690   0.00000   0.01610   2.11894
   A40        2.09064  -0.00785  -0.00751   0.00000  -0.00831   2.08233
   A41        1.56890   0.03500   0.09704   0.00000   0.09704   1.66594
    D1       -3.13731   0.00355   0.00857   0.00000   0.00855  -3.12876
    D2       -1.04641   0.00100   0.00157   0.00000   0.00159  -1.04482
    D3        1.04717   0.00139  -0.00006   0.00000  -0.00006   1.04711
    D4       -1.04673  -0.00074   0.00093   0.00000   0.00093  -1.04580
    D5        1.04416  -0.00329  -0.00607   0.00000  -0.00603   1.03814
    D6        3.13774  -0.00290  -0.00770   0.00000  -0.00767   3.13007
    D7        1.04775  -0.00018   0.00111   0.00000   0.00107   1.04882
    D8        3.13865  -0.00273  -0.00589   0.00000  -0.00589   3.13276
    D9       -1.05096  -0.00233  -0.00752   0.00000  -0.00754  -1.05849
   D10       -1.04886  -0.00182  -0.00332   0.00000  -0.00332  -1.05218
   D11        1.04532  -0.00200  -0.00375   0.00000  -0.00373   1.04159
   D12        3.13944  -0.00227  -0.00430   0.00000  -0.00430   3.13514
   D13       -3.13924   0.00238   0.00471   0.00000   0.00468  -3.13456
   D14       -1.04506   0.00219   0.00428   0.00000   0.00426  -1.04079
   D15        1.04906   0.00193   0.00373   0.00000   0.00369   1.05276
   D16        1.04934   0.00194   0.00429   0.00000   0.00430   1.05365
   D17       -3.13966   0.00175   0.00386   0.00000   0.00389  -3.13577
   D18       -1.04554   0.00149   0.00331   0.00000   0.00332  -1.04222
   D19        1.04501   0.00131  -0.00437   0.00000  -0.00443   1.04058
   D20       -1.04515   0.00159   0.00409   0.00000   0.00407  -1.04108
   D21       -3.13631   0.00127   0.01057   0.00000   0.01079  -3.12552
   D22       -1.05234  -0.00221  -0.01028   0.00000  -0.01039  -1.06273
   D23        3.14069  -0.00192  -0.00181   0.00000  -0.00189   3.13879
   D24        1.04953  -0.00224   0.00467   0.00000   0.00483   1.05436
   D25        3.13922   0.00210  -0.00474   0.00000  -0.00486   3.13436
   D26        1.04906   0.00239   0.00373   0.00000   0.00363   1.05270
   D27       -1.04209   0.00206   0.01021   0.00000   0.01035  -1.03174
   D28        1.05005   0.00280   0.00570   0.00000   0.00512   1.05517
   D29       -1.06611  -0.01019  -0.03783   0.00000  -0.03779  -1.10390
   D30        3.13361   0.00063  -0.01596   0.00000  -0.01543   3.11818
   D31       -3.12798   0.00571   0.02722   0.00000   0.02662  -3.10136
[...]
   R15        1.91849   0.00017  -0.00011  -0.00002  -0.00014   1.91836
   R16        1.91962   0.00014  -0.00008   0.00002  -0.00006   1.91956
   R17        3.19168  -0.00060   0.00554   0.00033   0.00587   3.19755
   R18        2.06376  -0.00005   0.00007  -0.00003   0.00004   2.06380
   R19        2.06343  -0.00002   0.00004   0.00001   0.00005   2.06348
   R20        2.06726  -0.00001   0.00002   0.00003   0.00005   2.06731
   R21        2.48425   0.00140  -0.00068  -0.00025  -0.00092   2.48333
   R22        2.07633   0.00003  -0.00006  -0.00006  -0.00012   2.07621
   R23        2.27798   0.00020   0.00004   0.00003   0.00007   2.27805
    A1        1.85375   0.00001  -0.00004   0.00001  -0.00003   1.85372
    A2        1.90628   0.00002  -0.00018   0.00016  -0.00002   1.90625
    A3        1.91307  -0.00003   0.00003   0.00008   0.00011   1.91318
    A4        1.89944  -0.00003   0.00011  -0.00010   0.00002   1.89946
    A5        1.90820  -0.00002   0.00008  -0.00012  -0.00004   1.90816
    A6        1.97889   0.00005  -0.00001  -0.00003  -0.00004   1.97885
    A7        1.91002  -0.00005   0.00019  -0.00003   0.00015   1.91017
    A8        1.90365  -0.00002   0.00003   0.00014   0.00017   1.90382
    A9        1.98223   0.00006   0.00003  -0.00002   0.00001   1.98224
   A10        1.85619   0.00002   0.00003   0.00009   0.00012   1.85631
   A11        1.89989   0.00002  -0.00029  -0.00021  -0.00050   1.89938
   A12        1.90767  -0.00003   0.00002   0.00004   0.00006   1.90773
   A13        1.92431   0.00010  -0.00035  -0.00019  -0.00054   1.92377
   A14        1.91250   0.00002  -0.00007   0.00015   0.00008   1.91258
   A15        1.95385  -0.00009   0.00011  -0.00020  -0.00010   1.95375
   A16        1.86071  -0.00002   0.00007   0.00014   0.00020   1.86091
   A17        1.89374  -0.00006   0.00022   0.00015   0.00037   1.89411
   A18        1.91635   0.00005   0.00002  -0.00003  -0.00001   1.91634
   A19        1.92268   0.00007  -0.00032   0.00016  -0.00016   1.92252
   A20        1.90991  -0.00011   0.00018   0.00007   0.00025   1.91016
   A21        1.92563  -0.00012   0.00026   0.00014   0.00040   1.92603
   A22        1.88810   0.00005  -0.00042   0.00026  -0.00016   1.88794
   A23        1.95042   0.00002  -0.00019   0.00003  -0.00016   1.95026
   A24        1.86555   0.00009   0.00051  -0.00068  -0.00017   1.86538
   A25        2.19571   0.00048  -0.00135  -0.00306  -0.00441   2.19129
   A26        1.92612   0.00004   0.00030  -0.00018   0.00011   1.92624
   A27        1.92844   0.00013   0.00003   0.00031   0.00034   1.92878
   A28        1.87827  -0.00081   0.00157  -0.00015   0.00142   1.87969
   A29        1.86666  -0.00008   0.00028   0.00011   0.00040   1.86706
   A30        1.87204   0.00042  -0.00071   0.00313   0.00242   1.87446
   A31        1.99161   0.00033  -0.00149  -0.00311  -0.00459   1.98701
   A32        1.95110   0.00002   0.00007   0.00007   0.00014   1.95124
   A33        1.94133  -0.00001  -0.00001   0.00002   0.00001   1.94133
   A34        1.93596  -0.00003   0.00004  -0.00015  -0.00010   1.93585
   A35        1.87479  -0.00001  -0.00002  -0.00001  -0.00003   1.87476
   A36        1.87751   0.00000  -0.00002   0.00005   0.00003   1.87754
   A37        1.87992   0.00002  -0.00007   0.00002  -0.00005   1.87987
   A38        1.94471  -0.00073   0.00063   0.00024   0.00087   1.94558
   A39        2.19262   0.00125  -0.00092  -0.00026  -0.00118   2.19144
   A40        2.14585  -0.00052   0.00029   0.00003   0.00031   2.14617
   A41        2.05495   0.00133   0.00547   0.00245   0.00792   2.06287
    D1       -3.06621   0.00001  -0.00060  -0.00054  -0.00114  -3.06735
    D2       -1.04218   0.00000  -0.00045  -0.00037  -0.00082  -1.04300
    D3        1.09007  -0.00002  -0.00038  -0.00023  -0.00061   1.08946
    D4       -1.04949   0.00002  -0.00069  -0.00049  -0.00118  -1.05067
    D5        0.97453   0.00001  -0.00053  -0.00032  -0.00085   0.97368
    D6        3.10679  -0.00001  -0.00047  -0.00018  -0.00064   3.10614
    D7        1.07812   0.00001  -0.00051  -0.00073  -0.00124   1.07688
    D8        3.10214  -0.00001  -0.00035  -0.00056  -0.00092   3.10123
    D9       -1.04879  -0.00002  -0.00029  -0.00042  -0.00071  -1.04950
   D10       -0.98488  -0.00001  -0.00102   0.00185   0.00082  -0.98406
   D11        1.11081  -0.00001  -0.00101   0.00190   0.00089   1.11170
   D12       -3.08037  -0.00001  -0.00108   0.00184   0.00076  -3.07961
   D13       -3.01026   0.00000  -0.00103   0.00185   0.00082  -3.00945
   D14       -0.91457   0.00000  -0.00102   0.00190   0.00088  -0.91369
   D15        1.17744   0.00000  -0.00109   0.00184   0.00075   1.17819
   D16        1.15020   0.00002  -0.00123   0.00209   0.00085   1.15106
   D17       -3.03729   0.00002  -0.00122   0.00214   0.00091  -3.03637
   D18       -0.94528   0.00002  -0.00129   0.00208   0.00079  -0.94449
   D19        1.13809   0.00004   0.00015  -0.00322  -0.00307   1.13502
   D20       -0.90468  -0.00001   0.00031  -0.00337  -0.00305  -0.90774
   D21       -3.03515  -0.00002   0.00026  -0.00329  -0.00303  -3.03818
   D22       -0.99444   0.00005   0.00011  -0.00301  -0.00291  -0.99735
   D23       -3.03721   0.00000   0.00027  -0.00316  -0.00289  -3.04010
   D24        1.11551  -0.00001   0.00022  -0.00309  -0.00287   1.11264
   D25       -3.01507   0.00003   0.00022  -0.00302  -0.00280  -3.01788
   D26        1.22534  -0.00001   0.00039  -0.00317  -0.00278   1.22256
   D27       -0.90513  -0.00003   0.00034  -0.00310  -0.00276  -0.90789
   D28        1.05858  -0.00002   0.00271   0.00236   0.00508   1.06366
   D29       -1.01510  -0.00005   0.00330   0.00191   0.00521  -1.00989
   D30       -3.06300  -0.00003   0.00243   0.00261   0.00504  -3.05797
   D31       -3.09704   0.00002   0.00250   0.00210   0.00460  -3.09244
   D32        1.11247  -0.00002   0.00309   0.00165   0.00473   1.11720
   D33       -0.93544   0.00001   0.00221   0.00234   0.00455  -0.93088
   D34       -1.06968  -0.00001   0.00271   0.00233   0.00505  -1.06463
   D35        3.13983  -0.00005   0.00330   0.00188   0.00518  -3.13818
   D36        1.09192  -0.00002   0.00243   0.00258   0.00500   1.09693
   D37       -1.36672   0.00003   0.00407   0.01484   0.01891  -1.34781
   D38        2.82147  -0.00002   0.00460   0.01446   0.01905   2.84052
   D39        0.71859  -0.00013   0.00476   0.01466   0.01942   0.73802
   D40        3.10929  -0.00006   0.00153  -0.00116   0.00037   3.10966
   D41       -1.11304  -0.00006   0.00208  -0.00094   0.00115  -1.11190
   D42        1.07186  -0.00011   0.00131  -0.00472  -0.00341   1.06844
   D43       -1.02842  -0.00004   0.00117  -0.00083   0.00034  -1.02808
   D44        1.03244  -0.00004   0.00172  -0.00061   0.00111   1.03355
   D45       -3.06585  -0.00010   0.00095  -0.00440  -0.00345  -3.06930
   D46        1.03415   0.00009   0.00087  -0.00092  -0.00005   1.03411
   D47        3.09501   0.00009   0.00142  -0.00070   0.00072   3.09573
   D48       -1.00328   0.00004   0.00065  -0.00448  -0.00383  -1.00711
   D49        0.18083  -0.00070  -0.01089  -0.01794  -0.02883   0.15200
   D50       -0.41518  -0.00035   0.00521   0.00215   0.00736  -0.40782
   D51        2.72762  -0.00019   0.00569   0.00258   0.00828   2.73590
         Item               Value     Threshold  Converged?
 Maximum Force            0.001397     0.000450     NO 
 RMS     Force            0.000285     0.000300     YES
 Maximum Displacement     0.039066     0.001800     NO 
 RMS     Displacement     0.011129     0.001200     NO 
 Predicted change in Energy=-4.531339D-06
 GradGradGradGradGradGradGradGradGradGradGradGradGradGradGradGradGradGrad

                          Input orientation:                          
 ---------------------------------------------------------------------
 Center     Atomic      Atomic             Coordinates (Angstroms)
 Number     Number       Type             X           Y           Z
 ---------------------------------------------------------------------
      1          6           0       -2.059894   -1.048294    0.023143
      2          1           0       -1.636234   -2.057114    0.087433
      3          1           0       -3.147176   -1.172463    0.031140
      4          6           0       -1.645251   -0.248339    1.259082
      5          1           0       -2.128732    0.735557    1.236196
      6          1           0       -2.019242   -0.755331    2.156167
      7          6           0       -0.135339   -0.052857    1.381986
      8          1           0        0.235140    0.561638    0.555504
      9          1           0        0.369620   -1.025278    1.301540
     10          6           0        0.246075    0.618961    2.692543
     11          1           0       -0.069206   -0.001117    3.540909
     12          1           0       -0.260965    1.581966    2.768011
     13          7           0        1.696179    0.894282    2.725458
     14          1           0        1.946050    1.369630    3.586932
     15          1           0        2.223825    0.026609    2.701727
     16          1           0        2.049435    1.944958    1.447026
     17          6           0       -1.635193   -0.396625   -1.291093
     18          1           0       -0.548756   -0.373943   -1.400000
     19          1           0       -2.038451   -0.938039   -2.149348
     20          1           0       -1.994656    0.634947   -1.349573
     21          8           0        2.160786    2.602367    0.682423
     22          6           0        1.244101    3.540814    0.759374
     23          1           0        1.348195    4.272365   -0.053705
     24          8           0        0.387263    3.616298    1.603969
 ---------------------------------------------------------------------
                    Distance matrix (angstroms):
                    1          2          3          4          5
     1  C    0.000000
     2  H    1.096055   0.000000
     3  H    1.094378   1.751776   0.000000
     4  C    1.529511   2.155112   2.148866   0.000000
     5  H    2.158324   3.059611   2.475869   1.096508   0.000000
     6  H    2.153432   2.474064   2.441715   1.096208   1.755301
     7  C    2.557589   2.818793   3.485608   1.527466   2.148597
     8  H    2.853502   3.252536   3.836942   2.164938   2.466066
     9  H    2.745427   2.561677   3.742116   2.159894   3.057216
    10  C    3.901657   4.182231   4.669734   2.526684   2.788234
    11  H    4.175416   4.313837   4.812943   2.784200   3.177426
    12  H    4.205796   4.724380   4.838136   2.746477   2.559574
    13  N    5.018386   5.174445   5.915139   3.823741   4.107681
    14  H    5.881712   6.068099   6.711694   4.575385   4.746773
    15  H    5.165315   5.106514   6.116981   4.138426   4.647057
    16  H    5.279544   5.607960   6.223167   4.300765   4.354788
    17  C    1.527173   2.158137   2.153210   2.554502   2.812935
    18  H    2.182572   2.495622   3.072064   2.879026   3.267543
    19  H    2.175393   2.533239   2.457388   3.499670   3.777695
    20  H    2.172995   3.072563   2.549785   2.776213   2.591197
    21  O    5.619263   6.040044   6.545836   4.790091   4.710796
    22  C    5.702485   6.331242   6.482948   4.791215   4.412803
    23  H    6.319050   6.999216   7.061282   5.578610   5.124634
    24  O    5.499637   6.211443   6.156158   4.380123   3.842415
                    6          7          8          9         10
     6  H    0.000000
     7  C    2.154511   0.000000
     8  H    3.062477   1.094500   0.000000
     9  H    2.551455   1.098661   1.758680   0.000000
    10  C    2.703339   1.521307   2.137835   2.157237   0.000000
    11  H    2.507786   2.160556   3.053189   2.501249   1.097098
    12  H    2.988119   2.146974   2.486439   3.057106   1.090947
    13  N    4.104835   2.460985   2.637041   2.733498   1.476376
    14  H    4.720814   3.349244   3.573460   3.666570   2.062365
    15  H    4.348872   2.704382   2.974457   2.550503   2.064572
    16  H    4.934427   2.961204   2.449500   3.415442   2.561579
    17  C    3.487085   3.084329   2.797559   3.337098   4.521055
    18  H    3.867054   2.830804   2.305168   2.926767   4.285617
    19  H    4.309433   4.108005   3.838551   4.208924   5.575591
    20  H    3.771431   3.375137   2.933715   3.921039   4.621669
    21  O    5.560457   3.579356   2.808700   4.092845   3.411831
    22  C    5.572908   3.899356   3.151993   4.680583   3.642859
    23  H    6.442118   4.792664   3.921673   5.555116   4.701479
    24  O    5.020690   3.712828   3.233167   4.651452   3.192015
                   11         12         13         14         15
    11  H    0.000000
    12  H    1.772088   0.000000
    13  N    2.140861   2.074881   0.000000
    14  H    2.437688   2.363605   1.015150   0.000000
    15  H    2.441923   2.932185   1.015790   1.632316   0.000000
    16  H    3.558117   2.686022   1.692070   2.218308   2.298858
    17  C    5.094800   4.720133   5.375608   6.303974   5.568999
    18  H    4.978107   4.613103   4.864929   5.842396   4.967072
    19  H    6.093831   5.804335   6.408479   7.355712   6.529201
    20  H    5.294219   4.566950   5.504125   6.359088   5.880364
    21  O    4.463399   3.354962   2.703221   3.162582   3.273544
    22  C    4.691161   3.183855   3.327762   3.633436   4.133066
    23  H    5.761330   4.217786   4.388199   4.694415   5.136689
    24  O    4.128656   2.431810   3.221859   3.377792   4.178983
                   16         17         18         19         20
    16  H    0.000000
    17  C    5.153328   0.000000
    18  H    4.498161   1.092117   0.000000
    19  H    6.160876   1.091947   1.760375   0.000000
    20  H    5.088395   1.093973   1.763811   1.765175   0.000000
    21  O    1.014496   5.224766   4.531724   6.179563   5.026673
    22  C    1.915251   5.291331   4.816903   6.268647   4.835418
    23  H    2.856703   5.677253   5.196066   6.558155   5.107321
    24  O    2.362377   5.345584   5.081533   6.380710   4.825494
                   21         22         23         24
    21  O    0.000000
    22  C    1.314121   0.000000
    23  H    1.997769   1.098680   0.000000
    24  O    2.241135   1.205492   2.025265   0.000000
 Stoichiometry    C6H15NO2
 Framework group  C1[X(C6H15NO2)]
 Deg. of freedom    66
 Full point group                 C1      NOp   1
 Largest Abelian subgroup         C1      NOp   1
 Largest concise Abelian subgroup C1      NOp   1
                         Standard orientation:                         
 ---------------------------------------------------------------------
 Center     Atomic      Atomic             Coordinates (Angstroms)
 Number     Number       Type             X           Y           Z
 ---------------------------------------------------------------------
      1          6           0        3.126903   -0.139814    0.073556
      2          1           0        3.534658    0.500529   -0.717035
      3          1           0        3.913203   -0.230335    0.829335
      4          6           0        1.914074    0.547549    0.702825
      5          1           0        1.549286   -0.053901    1.543965
      6          1           0        2.226311    1.510205    1.124099
      7          6           0        0.763977    0.774133   -0.276507
      8          1           0        0.357041   -0.185358   -0.610740
      9          1           0        1.139392    1.285823   -1.173331
     10          6           0       -0.361717    1.585838    0.346647
     11          1           0        0.006561    2.574858    0.646375
     12          1           0       -0.727675    1.074531    1.238165
     13          7           0       -1.500416    1.686355   -0.587670
     14          1           0       -2.263294    2.202293   -0.160640
     15          1           0       -1.230344    2.194842   -1.424528
     16          1           0       -2.057526    0.117554   -0.890308
     17          6           0        2.812416   -1.521192   -0.496663
     18          1           0        2.128974   -1.463123   -1.346519
     19          1           0        3.719331   -2.022961   -0.840294
     20          1           0        2.345533   -2.158900    0.259726
     21          8           0       -2.346352   -0.850620   -0.982069
     22          6           0       -2.431039   -1.408848    0.204575
     23          1           0       -2.751505   -2.457370    0.133855
     24          8           0       -2.195489   -0.864276    1.253940
 ---------------------------------------------------------------------
 Rotational constants (GHZ):      1.8996465      0.7399199      0.6266589
 Standard basis: 6-311+G(d) (5D, 7F)
 There are   243 symmetry adapted basis functions of A   symmetry.
 Integral buffers will be    131072 words long.
 Raffenetti 2 integral format.
 Two-electron integral symmetry is turned on.
   243 basis functions,   399 primitive gaussians,   252 cartesian basis functions
    37 alpha electrons       37 beta electrons
       nuclear repulsion energy       474.9516937942 Hartrees.
 NAtoms=   24 NActive=   24 NUniq=   24 SFac= 7.50D-01 NAtFMM=   80 NAOKFM=F Big=F
 One-electron integrals computed using PRISM.
 NBasis=   243 RedAO= T  NBF=   243
 NBsUse=   243 1.00D-06 NBFU=   243
 Initial guess read from the read-write file.
 B after Tr=     0.000000    0.000000    0.000000
         Rot=    1.000000    0.000000    0.000000    0.000000 Ang=   0.00 deg.
 Initial guess orbital symmetries:
       Occupied  (A) (A) (A) (A) (A) (A) (A) (A) (A) (A) (A) (A)
                 (A) (A) (A) (A) (A) (A) (A) (A) (A) (A) (A) (A)
                 (A) (A) (A) (A) (A) (A) (A) (A) (A) (A) (A) (A)
                 (A)
       Virtual   (A) (A) (A) (A) (A) (A) (A) (A) (A) (A) (A) (A)
                 (A) (A) (A) (A) (A) (A) (A) (A) (A) (A) (A) (A)
                 (A) (A) (A) (A) (A) (A) (A) (A) (A) (A) (A) (A)
                 (A) (A) (A) (A) (A) (A) (A) (A) (A) (A) (A) (A)
                 (A) (A) (A) (A) (A) (A) (A) (A) (A) (A) (A) (A)
                 (A) (A) (A) (A) (A) (A) (A) (A) (A) (A) (A) (A)
                 (A) (A) (A) (A) (A) (A) (A) (A) (A) (A) (A) (A)
                 (A) (A) (A) (A) (A) (A) (A) (A) (A) (A) (A) (A)
                 (A) (A) (A) (A) (A) (A) (A) (A) (A) (A) (A) (A)
                 (A) (A) (A) (A) (A) (A) (A) (A) (A) (A) (A) (A)
                 (A) (A) (A) (A) (A) (A) (A) (A) (A) (A) (A) (A)
                 (A) (A) (A) (A) (A) (A) (A) (A) (A) (A) (A) (A)
                 (A) (A) (A) (A) (A) (A) (A) (A) (A) (A) (A) (A)
                 (A) (A) (A) (A) (A) (A) (A) (A) (A) (A) (A) (A)
                 (A) (A) (A) (A) (A) (A) (A) (A) (A) (A) (A) (A)
                 (A) (A) (A) (A) (A) (A) (A) (A) (A) (A) (A) (A)
                 (A) (A) (A) (A) (A) (A) (A) (A) (A) (A) (A) (A)
                 (A) (A)
 Harris functional with IExCor= 1009 diagonalized for initial guess.
 ExpMin= 4.38D-02 ExpMax= 8.59D+03 ExpMxC= 1.30D+03 IAcc=2 IRadAn=         0 AccDes= 0.00D+00
 HarFok:  IExCor= 1009 AccDes= 0.00D+00 IRadAn=         0 IDoV= 1
 ScaDFX=  1.000000  1.000000  1.000000  1.000000
 FoFCou: FMM=F IPFlag=           0 FMFlag=      100000 FMFlg1=           0
         NFxFlg=           0 DoJE=T BraDBF=F KetDBF=T FulRan=T
         Omega=  0.000000  0.000000  1.000000  0.000000  0.000000 ICntrl=     500 IOpCl=  0
         NMat0=    1 NMatS0=    1 NMatT0=    0 NMatD0=    1 NMtDS0=    0 NMtDT0=    0
         I1Cent=           4 NGrid=           0.
 Petite list used in FoFCou.
 Requested convergence on RMS density matrix=1.00D-08 within 128 cycles.
 Requested convergence on MAX density matrix=1.00D-06.
 Requested convergence on             energy=1.00D-06.
 No special actions if energy rises.
 SCF Done:  E(RM062X) =  -442.802430572     A.U. after   10 cycles
             Convg  =    0.9566D-08             -V/T =  2.0036
 Calling FoFJK, ICntrl=      2127 FMM=F ISym2X=0 I1Cent= 0 IOpClX= 0 NMat=1 NMatS=1 NMatT=0.
