 Entering Gaussian System, Link 0=g09
 Input=PAM.com
 Output=PAM.log
 Initial command:
 /gscratch/pfaendtner/codes/G09/g09/l1.exe /gscratch/pfaendtner/wesley/gaussian/Gau-2149.inp -scrdir=/gscratch/pfaendtner/wesley/gaussian/
 Entering Link 1 = /gscratch/pfaendtner/codes/G09/g09/l1.exe PID=      2150.
  
 Copyright (c) 1988,1990,1992,1993,1995,1998,2003,2009, Gaussian, Inc.
                  All Rights Reserved.
  
 This is part of the Gaussian(R) 09 program.  It is based on
 the Gaussian(R) 03 system (copyright 2003, Gaussian, Inc.),
 the Gaussian(R) 98 system (copyright 1998, Gaussian, Inc.),
 the Gaussian(R) 94 system (copyright 1995, Gaussian, Inc.),
 the Gaussian 92(TM) system (copyright 1992, Gaussian, Inc.),
 the Gaussian 90(TM) system (copyright 1990, Gaussian, Inc.),
 the Gaussian 88(TM) system (copyright 1988, Gaussian, Inc.),
 the Gaussian 86(TM) system (copyright 1986, Carnegie Mellon
 University), and the Gaussian 82(TM) system (copyright 1983,
 Carnegie Mellon University). Gaussian is a federally registered
 trademark of Gaussian, Inc.
  
 This software contains proprietary and confidential information,
 including trade secrets, belonging to Gaussian, Inc.
  
 This software is provided under written license and may be
 used, copied, transmitted, or stored only in accord with that
 written license.
  
 The following legend is applicable only to US Government
 contracts under FAR:
  
                    RESTRICTED RIGHTS LEGEND
  
 Use, reproduction and disclosure by the US Government is
 subject to restrictions as set forth in subparagraphs (a)
 and (c) of the Commercial Computer Software - Restricted
 Rights clause in FAR 52.227-19.
  
 Gaussian, Inc.
 340 Quinnipiac St., Bldg. 40, Wallingford CT 06492
  
  
 ---------------------------------------------------------------
 Warning -- This program may not be used in any manner that
 competes with the business of Gaussian, Inc. or will provide
 assistance to any competitor of Gaussian, Inc.  The licensee
 of this program is prohibited from giving any competitor of
 Gaussian, Inc. access to this program.  By using this program,
 the user acknowledges that Gaussian, Inc. is engaged in the
 business of creating and licensing software in the field of
 computational chemistry and represents and warrants to the
 licensee that it is not a competitor of Gaussian, Inc. and that
 it will not use this program in any manner prohibited above.
 ---------------------------------------------------------------
  

 Cite this work as:
 Gaussian 09, Revision A.02,
 M. J. Frisch, G. W. Trucks, H. B. Schlegel, G. E. Scuseria, 
 M. A. Robb, J. R. Cheeseman, G. Scalmani, V. Barone, B. Mennucci, 
 G. A. Petersson, H. Nakatsuji, M. Caricato, X. Li, H. P. Hratchian, 
 A. F. Izmaylov, J. Bloino, G. Zheng, J. L. Sonnenberg, M. Hada, 
 M. Ehara, K. Toyota, R. Fukuda, J. Hasegawa, M. Ishida, T. Nakajima, 
 Y. Honda, O. Kitao, H. Nakai, T. Vreven, J. A. Montgomery, Jr., 
 J. E. Peralta, F. Ogliaro, M. Bearpark, J. J. Heyd, E. Brothers, 
 K. N. Kudin, V. N. Staroverov, R. Kobayashi, J. Normand, 
 K. Raghavachari, A. Rendell, J. C. Burant, S. S. Iyengar, J. Tomasi, 
 M. Cossi, N. Rega, J. M. Millam, M. Klene, J. E. Knox, J. B. Cross, 
 V. Bakken, C. Adamo, J. Jaramillo, R. Gomperts, R. E. Stratmann, 
 O. Yazyev, A. J. Austin, R. Cammi, C. Pomelli, J. W. Ochterski, 
 R. L. Martin, K. Morokuma, V. G. Zakrzewski, G. A. Voth, 
 P. Salvador, J. J. Dannenberg, S. Dapprich, A. D. Daniels, 
 O. Farkas, J. B. Foresman, J. V. Ortiz, J. Cioslowski, 
 and D. J. Fox, Gaussian, Inc., Wallingford CT, 2009.
 
 ******************************************
 Gaussian 09:  EM64L-G09RevA.02 11-Jun-2009
                 8-Mar-2017 
 ******************************************
 %chk=PAM.chk
 %nprocshared=2
 Will use up to    2 processors via shared memory.
 --------------------------------------
 # opt M062X/6-311+G* geom=connectivity
 --------------------------------------
 1/14=-1,18=20,19=15,26=3,38=1,57=2/1,3;
 2/9=110,12=2,17=6,18=5,40=1/2;
 3/5=4,6=6,7=11,11=2,16=1,25=1,30=1,71=1,74=-55/1,2,3;
 4//1;
 5/5=2,38=5/2;
 6/7=2,8=2,9=2,10=2,28=1/1;
 7//1,2,3,16;
 1/14=-1,18=20,19=15/3(2);
 2/9=110/2;
 99//99;
 2/9=110/2;
 3/5=4,6=6,7=11,11=2,16=1,25=1,30=1,71=1,74=-55/1,2,3;
 4/5=5,16=3/1;
 5/5=2,38=5/2;
 7//1,2,3,16;
 1/14=-1,18=20,19=15/3(-5);
 2/9=110/2;
 6/7=2,8=2,9=2,10=2,19=2,28=1/1;
 99/9=1/99;
 -------------------
 Title Card Required
 -------------------
 Symbolic Z-matrix:
 Charge =  0 Multiplicity = 2
 C(PDBName=C1,ResName=PAM,ResNum=1) -2.106    -0.794     0.079 
 H(PDBName=H1,ResName=PAM,ResNum=1) -1.87     -1.823     0.34 
 H(PDBName=H2,ResName=PAM,ResNum=1) -3.187    -0.713     0.12 
 C(PDBName=C2,ResName=PAM,ResNum=1) -1.53      0.144     1.147 
 H(PDBName=H3,ResName=PAM,ResNum=1) -1.779     1.173     0.896 
 H(PDBName=H4,ResName=PAM,ResNum=1) -2.01     -0.071     2.098 
 C(PDBName=C3,ResName=PAM,ResNum=1) -0.01      0.02      1.32 
 H(PDBName=H5,ResName=PAM,ResNum=1)  0.495     0.294     0.398 
 H(PDBName=H6,ResName=PAM,ResNum=1)  0.247    -1.015     1.536 
 C(PDBName=C4,ResName=PAM,ResNum=1)  0.481     0.913     2.449 
 H(PDBName=H7,ResName=PAM,ResNum=1)  0.059     0.641     3.406 
 H(PDBName=H8,ResName=PAM,ResNum=1)  0.288     1.959     2.262 
 N(PDBName=N1,ResName=PAM,ResNum=1)  1.988     0.788     2.606 
 H(PDBName=H9,ResName=PAM,ResNum=1)  2.341     1.372     3.352 
 H(PDBName=H10,ResName=PAM,ResNum=1)  2.257    -0.164     2.813 
 H(PDBName=H11,ResName=PAM,ResNum=1)  2.468     1.056     1.758 
 C(PDBName=C5,ResName=PAM,ResNum=1) -1.639    -0.499    -1.347 
 H(PDBName=H12,ResName=PAM,ResNum=1) -0.574    -0.667    -1.476 
 H(PDBName=H13,ResName=PAM,ResNum=1) -2.15     -1.143    -2.052 
 H(PDBName=H14,ResName=PAM,ResNum=1) -1.853     0.529    -1.625 
 

 GradGradGradGradGradGradGradGradGradGradGradGradGradGradGradGradGradGrad
 Berny optimization.
 Initialization pass.
                           ----------------------------
                           !    Initial Parameters    !
                           ! (Angstroms and Degrees)  !
 --------------------------                            --------------------------
 ! Name  Definition              Value          Derivative Info.                !
 --------------------------------------------------------------------------------
 ! R1    R(1,2)                  1.0875         estimate D2E/DX2                !
 ! R2    R(1,3)                  1.0848         estimate D2E/DX2                !
 ! R3    R(1,4)                  1.5337         estimate D2E/DX2                !
 ! R4    R(1,17)                 1.5292         estimate D2E/DX2                !
 ! R5    R(4,5)                  1.088          estimate D2E/DX2                !
 ! R6    R(4,6)                  1.0868         estimate D2E/DX2                !
 ! R7    R(4,7)                  1.5348         estimate D2E/DX2                !
 ! R8    R(7,8)                  1.0864         estimate D2E/DX2                !
 ! R9    R(7,9)                  1.0881         estimate D2E/DX2                !
 ! R10   R(7,10)                 1.5209         estimate D2E/DX2                !
 ! R11   R(10,11)                1.0807         estimate D2E/DX2                !
 ! R12   R(10,12)                1.08           estimate D2E/DX2                !
 ! R13   R(10,13)                1.5203         estimate D2E/DX2                !
 ! R14   R(13,14)                1.011          estimate D2E/DX2                !
 ! R15   R(13,15)                1.0107         estimate D2E/DX2                !
 ! R16   R(13,16)                1.0106         estimate D2E/DX2                !
 ! R17   R(17,18)                1.0859         estimate D2E/DX2                !
 ! R18   R(17,19)                1.083          estimate D2E/DX2                !
 ! R19   R(17,20)                1.0862         estimate D2E/DX2                !
 ! A1    A(2,1,3)              106.1308         estimate D2E/DX2                !
 ! A2    A(2,1,4)              109.2728         estimate D2E/DX2                !
 ! A3    A(2,1,17)             109.8802         estimate D2E/DX2                !
 ! A4    A(3,1,4)              107.5934         estimate D2E/DX2                !
 ! A5    A(3,1,17)             108.9745         estimate D2E/DX2                !
 ! A6    A(4,1,17)             114.6247         estimate D2E/DX2                !
 ! A7    A(1,4,5)              109.3789         estimate D2E/DX2                !
 ! A8    A(1,4,6)              108.8138         estimate D2E/DX2                !
 ! A9    A(1,4,7)              113.6415         estimate D2E/DX2                !
 ! A10   A(5,4,6)              106.7319         estimate D2E/DX2                !
 ! A11   A(5,4,7)              109.211          estimate D2E/DX2                !
 ! A12   A(6,4,7)              108.8321         estimate D2E/DX2                !
 ! A13   A(4,7,8)              110.1405         estimate D2E/DX2                !
 ! A14   A(4,7,9)              109.4593         estimate D2E/DX2                !
 ! A15   A(4,7,10)             110.8516         estimate D2E/DX2                !
 ! A16   A(8,7,9)              107.3733         estimate D2E/DX2                !
 ! A17   A(8,7,10)             109.381          estimate D2E/DX2                !
 ! A18   A(9,7,10)             109.5659         estimate D2E/DX2                !
 ! A19   A(7,10,11)            112.5512         estimate D2E/DX2                !
 ! A20   A(7,10,12)            112.4857         estimate D2E/DX2                !
 ! A21   A(7,10,13)            110.3889         estimate D2E/DX2                !
 ! A22   A(11,10,12)           109.1063         estimate D2E/DX2                !
 ! A23   A(11,10,13)           105.9577         estimate D2E/DX2                !
 ! A24   A(12,10,13)           105.9418         estimate D2E/DX2                !
 ! A25   A(10,13,14)           112.0119         estimate D2E/DX2                !
 ! A26   A(10,13,15)           111.2488         estimate D2E/DX2                !
 ! A27   A(10,13,16)           111.2445         estimate D2E/DX2                !
 ! A28   A(14,13,15)           107.4596         estimate D2E/DX2                !
 ! A29   A(14,13,16)           107.4652         estimate D2E/DX2                !
 ! A30   A(15,13,16)           107.1712         estimate D2E/DX2                !
 ! A31   A(1,17,18)            112.3614         estimate D2E/DX2                !
 ! A32   A(1,17,19)            110.3786         estimate D2E/DX2                !
 ! A33   A(1,17,20)            111.1652         estimate D2E/DX2                !
 ! A34   A(18,17,19)           107.0639         estimate D2E/DX2                !
 ! A35   A(18,17,20)           108.014          estimate D2E/DX2                !
 ! A36   A(19,17,20)           107.6506         estimate D2E/DX2                !
 ! D1    D(2,1,4,5)           -179.092          estimate D2E/DX2                !
 ! D2    D(2,1,4,6)            -62.8446         estimate D2E/DX2                !
 ! D3    D(2,1,4,7)             58.5816         estimate D2E/DX2                !
 ! D4    D(3,1,4,5)            -64.28           estimate D2E/DX2                !
 ! D5    D(3,1,4,6)             51.9674         estimate D2E/DX2                !
 ! D6    D(3,1,4,7)            173.3936         estimate D2E/DX2                !
 ! D7    D(17,1,4,5)            57.0904         estimate D2E/DX2                !
 ! D8    D(17,1,4,6)           173.3378         estimate D2E/DX2                !
 ! D9    D(17,1,4,7)           -65.236          estimate D2E/DX2                !
 ! D10   D(2,1,17,18)          -58.0597         estimate D2E/DX2                !
 ! D11   D(2,1,17,19)           61.3663         estimate D2E/DX2                !
 ! D12   D(2,1,17,20)         -179.2485         estimate D2E/DX2                !
 ! D13   D(3,1,17,18)         -173.9559         estimate D2E/DX2                !
 ! D14   D(3,1,17,19)          -54.5299         estimate D2E/DX2                !
 ! D15   D(3,1,17,20)           64.8552         estimate D2E/DX2                !
 ! D16   D(4,1,17,18)           65.4335         estimate D2E/DX2                !
 ! D17   D(4,1,17,19)         -175.1404         estimate D2E/DX2                !
 ! D18   D(4,1,17,20)          -55.7553         estimate D2E/DX2                !
 ! D19   D(1,4,7,8)             62.2662         estimate D2E/DX2                !
 ! D20   D(1,4,7,9)            -55.5665         estimate D2E/DX2                !
 ! D21   D(1,4,7,10)          -176.5405         estimate D2E/DX2                !
 ! D22   D(5,4,7,8)            -60.153          estimate D2E/DX2                !
 ! D23   D(5,4,7,9)           -177.9856         estimate D2E/DX2                !
 ! D24   D(5,4,7,10)            61.0404         estimate D2E/DX2                !
 ! D25   D(6,4,7,8)           -176.3179         estimate D2E/DX2                !
 ! D26   D(6,4,7,9)             65.8495         estimate D2E/DX2                !
 ! D27   D(6,4,7,10)           -55.1245         estimate D2E/DX2                !
 ! D28   D(4,7,10,11)           62.158          estimate D2E/DX2                !
 ! D29   D(4,7,10,12)          -61.585          estimate D2E/DX2                !
 ! D30   D(4,7,10,13)         -179.6824         estimate D2E/DX2                !
 ! D31   D(8,7,10,11)         -176.202          estimate D2E/DX2                !
 ! D32   D(8,7,10,12)           60.055          estimate D2E/DX2                !
 ! D33   D(8,7,10,13)          -58.0424         estimate D2E/DX2                !
 ! D34   D(9,7,10,11)          -58.753          estimate D2E/DX2                !
 ! D35   D(9,7,10,12)          177.504          estimate D2E/DX2                !
 ! D36   D(9,7,10,13)           59.4066         estimate D2E/DX2                !
 ! D37   D(7,10,13,14)        -179.949          estimate D2E/DX2                !
 ! D38   D(7,10,13,15)         -59.6554         estimate D2E/DX2                !
 ! D39   D(7,10,13,16)          59.7532         estimate D2E/DX2                !
 ! D40   D(11,10,13,14)        -57.8205         estimate D2E/DX2                !
 ! D41   D(11,10,13,15)         62.4731         estimate D2E/DX2                !
 ! D42   D(11,10,13,16)       -178.1184         estimate D2E/DX2                !
 ! D43   D(12,10,13,14)         58.0116         estimate D2E/DX2                !
 ! D44   D(12,10,13,15)        178.3053         estimate D2E/DX2                !
 ! D45   D(12,10,13,16)        -62.2862         estimate D2E/DX2                !
 --------------------------------------------------------------------------------
 Trust Radius=3.00D-01 FncErr=1.00D-07 GrdErr=1.00D-06
 Number of steps in this run= 110 maximum allowed number of steps= 120.
 GradGradGradGradGradGradGradGradGradGradGradGradGradGradGradGradGradGrad

                          Input orientation:                          
 ---------------------------------------------------------------------
 Center     Atomic      Atomic             Coordinates (Angstroms)
 Number     Number       Type             X           Y           Z
 ---------------------------------------------------------------------
      1          6           0       -2.106000   -0.794000    0.079000
      2          1           0       -1.870000   -1.823000    0.340000
      3          1           0       -3.187000   -0.713000    0.120000
      4          6           0       -1.530000    0.144000    1.147000
      5          1           0       -1.779000    1.173000    0.896000
      6          1           0       -2.010000   -0.071000    2.098000
      7          6           0       -0.010000    0.020000    1.320000
      8          1           0        0.495000    0.294000    0.398000
      9          1           0        0.247000   -1.015000    1.536000
     10          6           0        0.481000    0.913000    2.449000
     11          1           0        0.059000    0.641000    3.406000
     12          1           0        0.288000    1.959000    2.262000
     13          7           0        1.988000    0.788000    2.606000
     14          1           0        2.341000    1.372000    3.352000
     15          1           0        2.257000   -0.164000    2.813000
     16          1           0        2.468000    1.056000    1.758000
     17          6           0       -1.639000   -0.499000   -1.347000
     18          1           0       -0.574000   -0.667000   -1.476000
     19          1           0       -2.150000   -1.143000   -2.052000
     20          1           0       -1.853000    0.529000   -1.625000
 ---------------------------------------------------------------------
                    Distance matrix (angstroms):
                    1          2          3          4          5
     1  C    0.000000
     2  H    1.087501   0.000000
     3  H    1.084806   1.736372   0.000000
     4  C    1.533703   2.153123   2.129513   0.000000
     5  H    2.154880   3.048513   2.478232   1.088045   0.000000
     6  H    2.146697   2.485894   2.389556   1.086750   1.745194
     7  C    2.568247   2.795827   3.474279   1.534831   2.153728
     8  H    2.837377   3.174630   3.827330   2.164284   2.488317
     9  H    2.776382   2.562220   3.726743   2.156926   3.049856
    10  C    3.901707   4.178610   4.639218   2.516085   2.754453
    11  H    4.220827   4.380947   4.813276   2.806245   3.156163
    12  H    4.251557   4.759682   4.878870   2.800460   2.599277
    13  N    5.064513   5.180371   5.934124   3.862608   4.154830
    14  H    5.931264   6.083806   6.734377   4.621109   4.800618
    15  H    5.187237   5.089218   6.098425   4.148709   4.663878
    16  H    5.211815   5.396073   6.147473   4.145970   4.335175
    17  C    1.529245   2.156920   2.143406   2.577861   2.801113
    18  H    2.186590   2.512729   3.062205   2.907196   3.234812
    19  H    2.159837   2.502492   2.444965   3.503480   3.767254
    20  H    2.172085   3.064868   2.523320   2.817186   2.603008
                    6          7          8          9         10
     6  H    0.000000
     7  C    2.147921   0.000000
     8  H    3.049303   1.086363   0.000000
     9  H    2.510185   1.088085   1.752150   0.000000
    10  C    2.701210   1.520911   2.142419   2.146045   0.000000
    11  H    2.549229   2.177567   3.059178   2.504911   1.080702
    12  H    3.070603   2.176210   2.507902   3.061606   1.079969
    13  N    4.120673   2.497123   2.710784   2.725214   1.520304
    14  H    4.752469   3.388824   3.646357   3.657931   2.117945
    15  H    4.327489   2.720697   3.024340   2.528840   2.108697
    16  H    4.630142   2.721328   2.514552   3.044859   2.108577
    17  C    3.491253   3.167947   2.868419   3.483524   4.571407
    18  H    3.897536   2.933885   2.361812   3.141224   4.360625
    19  H    4.288506   4.159634   3.881172   4.316913   5.604311
    20  H    3.774305   3.511233   3.108192   4.097055   4.710890
                   11         12         13         14         15
    11  H    0.000000
    12  H    1.760199   0.000000
    13  N    2.093478   2.092744   0.000000
    14  H    2.396831   2.397390   1.011030   0.000000
    15  H    2.414721   2.947489   1.010700   1.629992   0.000000
    16  H    2.948120   2.412846   1.010608   1.629976   1.626636
    17  C    5.174342   4.772837   5.517038   6.435965   5.709347
    18  H    5.093670   4.648824   5.034242   5.997027   5.163632
    19  H    6.152406   5.846096   6.522942   7.463077   6.636890
    20  H    5.383238   4.662355   5.720290   6.562836   6.088365
                   16         17         18         19         20
    16  H    0.000000
    17  C    5.378336   0.000000
    18  H    4.762483   1.085859   0.000000
    19  H    6.377901   1.082997   1.744170   0.000000
    20  H    5.513026   1.086215   1.757401   1.751035   0.000000
 Stoichiometry    C5H14N(2)
 Framework group  C1[X(C5H14N)]
 Deg. of freedom    54
 Full point group                 C1      NOp   1
 Largest Abelian subgroup         C1      NOp   1
 Largest concise Abelian subgroup C1      NOp   1
                         Standard orientation:                         
 ---------------------------------------------------------------------
 Center     Atomic      Atomic             Coordinates (Angstroms)
 Number     Number       Type             X           Y           Z
 ---------------------------------------------------------------------
      1          6           0       -2.096314   -0.422667   -0.359427
      2          1           0       -2.054147   -0.352740   -1.443858
      3          1           0       -2.802824   -1.214886   -0.135739
      4          6           0       -0.726056   -0.859462    0.173345
      5          1           0       -0.770773   -0.945575    1.257055
      6          1           0       -0.500689   -1.850966   -0.210263
      7          6           0        0.415506    0.091751   -0.211019
      8          1           0        0.243473    1.075008    0.217695
      9          1           0        0.441192    0.208812   -1.292484
     10          6           0        1.753370   -0.443826    0.275240
     11          1           0        2.006974   -1.394035   -0.172760
     12          1           0        1.794601   -0.537659    1.350335
     13          7           0        2.875072    0.509732   -0.104014
     14          1           0        3.777341    0.176352    0.207353
     15          1           0        2.926967    0.634309   -1.105663
     16          1           0        2.732283    1.423536    0.303296
     17          6           0       -2.618941    0.889692    0.226375
     18          1           0       -2.006093    1.740755   -0.055052
     19          1           0       -3.622070    1.088732   -0.129993
     20          1           0       -2.657129    0.847298    1.311091
 ---------------------------------------------------------------------
 Rotational constants (GHZ):      8.7027494      1.3086264      1.2175786
 Standard basis: 6-311+G(d) (5D, 7F)
 There are   174 symmetry adapted basis functions of A   symmetry.
 Integral buffers will be    131072 words long.
 Raffenetti 2 integral format.
 Two-electron integral symmetry is turned on.
   174 basis functions,   286 primitive gaussians,   180 cartesian basis functions
    26 alpha electrons       25 beta electrons
       nuclear repulsion energy       258.2218166708 Hartrees.
 NAtoms=   20 NActive=   20 NUniq=   20 SFac= 7.50D-01 NAtFMM=   80 NAOKFM=F Big=F
 One-electron integrals computed using PRISM.
 NBasis=   174 RedAO= T  NBF=   174
 NBsUse=   174 1.00D-06 NBFU=   174
 Harris functional with IExCor= 1009 diagonalized for initial guess.
 ExpMin= 4.38D-02 ExpMax= 6.29D+03 ExpMxC= 9.49D+02 IAcc=2 IRadAn=         0 AccDes= 0.00D+00
 HarFok:  IExCor= 1009 AccDes= 0.00D+00 IRadAn=         0 IDoV= 1
 ScaDFX=  1.000000  1.000000  1.000000  1.000000
 FoFCou: FMM=F IPFlag=           0 FMFlag=      100000 FMFlg1=           0
         NFxFlg=           0 DoJE=T BraDBF=F KetDBF=T FulRan=T
         Omega=  0.000000  0.000000  1.000000  0.000000  0.000000 ICntrl=     500 IOpCl=  0
         NMat0=    1 NMatS0=    1 NMatT0=    0 NMatD0=    1 NMtDS0=    0 NMtDT0=    0
         I1Cent=           4 NGrid=           0.
 Petite list used in FoFCou.
 Initial guess orbital symmetries:
 Alpha Orbitals:
       Occupied  (A) (A) (A) (A) (A) (A) (A) (A) (A) (A) (A) (A)
                 (A) (A) (A) (A) (A) (A) (A) (A) (A) (A) (A) (A)
                 (A) (A)
       Virtual   (A) (A) (A) (A) (A) (A) (A) (A) (A) (A) (A) (A)
                 (A) (A) (A) (A) (A) (A) (A) (A) (A) (A) (A) (A)
                 (A) (A) (A) (A) (A) (A) (A) (A) (A) (A) (A) (A)
                 (A) (A) (A) (A) (A) (A) (A) (A) (A) (A) (A) (A)
                 (A) (A) (A) (A) (A) (A) (A) (A) (A) (A) (A) (A)
                 (A) (A) (A) (A) (A) (A) (A) (A) (A) (A) (A) (A)
                 (A) (A) (A) (A) (A) (A) (A) (A) (A) (A) (A) (A)
                 (A) (A) (A) (A) (A) (A) (A) (A) (A) (A) (A) (A)
                 (A) (A) (A) (A) (A) (A) (A) (A) (A) (A) (A) (A)
                 (A) (A) (A) (A) (A) (A) (A) (A) (A) (A) (A) (A)
                 (A) (A) (A) (A) (A) (A) (A) (A) (A) (A) (A) (A)
                 (A) (A) (A) (A) (A) (A) (A) (A) (A) (A) (A) (A)
                 (A) (A) (A) (A)
 Beta  Orbitals:
       Occupied  (A) (A) (A) (A) (A) (A) (A) (A) (A) (A) (A) (A)
                 (A) (A) (A) (A) (A) (A) (A) (A) (A) (A) (A) (A)
                 (A)
       Virtual   (A) (A) (A) (A) (A) (A) (A) (A) (A) (A) (A) (A)
                 (A) (A) (A) (A) (A) (A) (A) (A) (A) (A) (A) (A)
                 (A) (A) (A) (A) (A) (A) (A) (A) (A) (A) (A) (A)
                 (A) (A) (A) (A) (A) (A) (A) (A) (A) (A) (A) (A)
                 (A) (A) (A) (A) (A) (A) (A) (A) (A) (A) (A) (A)
                 (A) (A) (A) (A) (A) (A) (A) (A) (A) (A) (A) (A)
                 (A) (A) (A) (A) (A) (A) (A) (A) (A) (A) (A) (A)
                 (A) (A) (A) (A) (A) (A) (A) (A) (A) (A) (A) (A)
                 (A) (A) (A) (A) (A) (A) (A) (A) (A) (A) (A) (A)
                 (A) (A) (A) (A) (A) (A) (A) (A) (A) (A) (A) (A)
                 (A) (A) (A) (A) (A) (A) (A) (A) (A) (A) (A) (A)
                 (A) (A) (A) (A) (A) (A) (A) (A) (A) (A) (A) (A)
                 (A) (A) (A) (A) (A)
 The electronic state of the initial guess is 2-A.
 Initial guess <Sx>= 0.0000 <Sy>= 0.0000 <Sz>= 0.5000 <S**2>= 0.7500 S= 0.5000
 Requested convergence on RMS density matrix=1.00D-08 within 128 cycles.
 Requested convergence on MAX density matrix=1.00D-06.
 Requested convergence on             energy=1.00D-06.
 No special actions if energy rises.
 Restarting incremental Fock formation.
 SCF Done:  E(UM062X) =  -253.530652151     A.U. after   20 cycles
             Convg  =    0.3576D-08             -V/T =  2.0032
 <Sx>= 0.0000 <Sy>= 0.0000 <Sz>= 0.5000 <S**2>= 0.7507 S= 0.5004
 <L.S>= 0.000000000000E+00
 Annihilation of the first spin contaminant:
 S**2 before annihilation     0.7507,   after     0.7500

 **********************************************************************

            Population analysis using the SCF density.

 **********************************************************************

 Orbital symmetries:
 Alpha Orbitals:
       Occupied  (A) (A) (A) (A) (A) (A) (A) (A) (A) (A) (A) (A)
                 (A) (A) (A) (A) (A) (A) (A) (A) (A) (A) (A) (A)
                 (A) (A)
       Virtual   (A) (A) (A) (A) (A) (A) (A) (A) (A) (A) (A) (A)
                 (A) (A) (A) (A) (A) (A) (A) (A) (A) (A) (A) (A)
                 (A) (A) (A) (A) (A) (A) (A) (A) (A) (A) (A) (A)
                 (A) (A) (A) (A) (A) (A) (A) (A) (A) (A) (A) (A)
                 (A) (A) (A) (A) (A) (A) (A) (A) (A) (A) (A) (A)
                 (A) (A) (A) (A) (A) (A) (A) (A) (A) (A) (A) (A)
                 (A) (A) (A) (A) (A) (A) (A) (A) (A) (A) (A) (A)
                 (A) (A) (A) (A) (A) (A) (A) (A) (A) (A) (A) (A)
                 (A) (A) (A) (A) (A) (A) (A) (A) (A) (A) (A) (A)
                 (A) (A) (A) (A) (A) (A) (A) (A) (A) (A) (A) (A)
                 (A) (A) (A) (A) (A) (A) (A) (A) (A) (A) (A) (A)
                 (A) (A) (A) (A) (A) (A) (A) (A) (A) (A) (A) (A)
                 (A) (A) (A) (A)
 Beta  Orbitals:
       Occupied  (A) (A) (A) (A) (A) (A) (A) (A) (A) (A) (A) (A)
                 (A) (A) (A) (A) (A) (A) (A) (A) (A) (A) (A) (A)
                 (A)
       Virtual   (A) (A) (A) (A) (A) (A) (A) (A) (A) (A) (A) (A)
                 (A) (A) (A) (A) (A) (A) (A) (A) (A) (A) (A) (A)
                 (A) (A) (A) (A) (A) (A) (A) (A) (A) (A) (A) (A)
                 (A) (A) (A) (A) (A) (A) (A) (A) (A) (A) (A) (A)
                 (A) (A) (A) (A) (A) (A) (A) (A) (A) (A) (A) (A)
                 (A) (A) (A) (A) (A) (A) (A) (A) (A) (A) (A) (A)
                 (A) (A) (A) (A) (A) (A) (A) (A) (A) (A) (A) (A)
                 (A) (A) (A) (A) (A) (A) (A) (A) (A) (A) (A) (A)
                 (A) (A) (A) (A) (A) (A) (A) (A) (A) (A) (A) (A)
                 (A) (A) (A) (A) (A) (A) (A) (A) (A) (A) (A) (A)
                 (A) (A) (A) (A) (A) (A) (A) (A) (A) (A) (A) (A)
                 (A) (A) (A) (A) (A) (A) (A) (A) (A) (A) (A) (A)
                 (A) (A) (A) (A) (A)
 The electronic state is 2-A.
 Alpha  occ. eigenvalues --  -14.85484 -10.61144 -10.55928 -10.54922 -10.54246
 Alpha  occ. eigenvalues --  -10.52990  -1.11785  -0.92923  -0.87129  -0.79441
 Alpha  occ. eigenvalues --   -0.73495  -0.67921  -0.66586  -0.64511  -0.57602
 Alpha  occ. eigenvalues --   -0.56407  -0.53531  -0.51536  -0.48362  -0.46378
 Alpha  occ. eigenvalues --   -0.45907  -0.43590  -0.40555  -0.40373  -0.39899
 Alpha  occ. eigenvalues --   -0.10642
 Alpha virt. eigenvalues --    0.01049   0.01365   0.01926   0.03312   0.03693
 Alpha virt. eigenvalues --    0.04315   0.05229   0.06402   0.06817   0.07884
 Alpha virt. eigenvalues --    0.08274   0.08893   0.09616   0.11198   0.11823
 Alpha virt. eigenvalues --    0.12387   0.13339   0.14024   0.15530   0.16212
 Alpha virt. eigenvalues --    0.17082   0.17574   0.18166   0.18923   0.20025
 Alpha virt. eigenvalues --    0.20129   0.20789   0.22154   0.22583   0.23575
 Alpha virt. eigenvalues --    0.24500   0.25140   0.25754   0.26653   0.27673
 Alpha virt. eigenvalues --    0.28088   0.28401   0.30365   0.30721   0.31796
 Alpha virt. eigenvalues --    0.33684   0.35864   0.40603   0.41448   0.42719
 Alpha virt. eigenvalues --    0.45151   0.46930   0.48149   0.48671   0.49779
 Alpha virt. eigenvalues --    0.54217   0.55594   0.56669   0.59475   0.60976
 Alpha virt. eigenvalues --    0.64202   0.65178   0.66915   0.67216   0.68314
 Alpha virt. eigenvalues --    0.69614   0.70926   0.71975   0.72972   0.73338
 Alpha virt. eigenvalues --    0.74092   0.74727   0.77077   0.77695   0.79482
 Alpha virt. eigenvalues --    0.80500   0.81374   0.82294   0.87020   0.90792
 Alpha virt. eigenvalues --    0.95192   1.02169   1.07223   1.10008   1.17056
 Alpha virt. eigenvalues --    1.20679   1.25651   1.32038   1.33553   1.43261
 Alpha virt. eigenvalues --    1.47536   1.50859   1.54305   1.56657   1.57829
 Alpha virt. eigenvalues --    1.61084   1.63546   1.65247   1.68649   1.69096
 Alpha virt. eigenvalues --    1.76290   1.79766   1.80975   1.83917   1.85180
 Alpha virt. eigenvalues --    1.89368   1.97971   1.99928   2.03967   2.04745
 Alpha virt. eigenvalues --    2.06436   2.12517   2.17505   2.26221   2.32992
 Alpha virt. eigenvalues --    2.50373   2.54337   2.55108   2.55514   2.57570
 Alpha virt. eigenvalues --    2.59603   2.60045   2.62930   2.63821   2.64404
 Alpha virt. eigenvalues --    2.66891   2.70970   2.82591   2.85884   2.96703
 Alpha virt. eigenvalues --    3.00837   3.06034   3.10679   3.19014   3.21509
 Alpha virt. eigenvalues --    3.23963   3.28225   3.29985   3.34157   3.37004
 Alpha virt. eigenvalues --    3.63282   3.81983   3.98888   4.04066   4.09039
 Alpha virt. eigenvalues --    4.11437   4.48675  23.50262  23.61271  23.73090
 Alpha virt. eigenvalues --   23.78949  23.80295  35.39107
  Beta  occ. eigenvalues --  -14.85055 -10.61106 -10.55903 -10.54911 -10.54247
  Beta  occ. eigenvalues --  -10.52990  -1.11047  -0.92811  -0.87002  -0.79318
  Beta  occ. eigenvalues --   -0.73382  -0.67847  -0.66370  -0.64288  -0.57360
  Beta  occ. eigenvalues --   -0.56313  -0.53497  -0.51487  -0.48317  -0.46330
  Beta  occ. eigenvalues --   -0.45842  -0.43571  -0.40551  -0.40357  -0.39857
  Beta virt. eigenvalues --   -0.02616   0.00919   0.01099   0.01519   0.03212
  Beta virt. eigenvalues --    0.04077   0.04334   0.04737   0.06113   0.07341
  Beta virt. eigenvalues --    0.08146   0.08513   0.08635   0.09581   0.10976
  Beta virt. eigenvalues --    0.11961   0.12876   0.13407   0.13891   0.16204
  Beta virt. eigenvalues --    0.16819   0.17704   0.18131   0.18671   0.19058
  Beta virt. eigenvalues --    0.20690   0.20960   0.22879   0.23125   0.24482
  Beta virt. eigenvalues --    0.24812   0.25508   0.26086   0.26327   0.27994
  Beta virt. eigenvalues --    0.28144   0.28818   0.29891   0.30892   0.31353
  Beta virt. eigenvalues --    0.33017   0.33755   0.35540   0.41226   0.42683
  Beta virt. eigenvalues --    0.43145   0.45529   0.47321   0.48568   0.49279
  Beta virt. eigenvalues --    0.49661   0.53847   0.55321   0.56618   0.60712
  Beta virt. eigenvalues --    0.61679   0.64023   0.65557   0.66855   0.67103
  Beta virt. eigenvalues --    0.67943   0.69678   0.70965   0.71934   0.73036
  Beta virt. eigenvalues --    0.73546   0.74147   0.74852   0.76998   0.77769
  Beta virt. eigenvalues --    0.79575   0.80529   0.81508   0.82362   0.87258
  Beta virt. eigenvalues --    0.90693   0.95272   1.02433   1.07312   1.10091
  Beta virt. eigenvalues --    1.17155   1.20776   1.26164   1.32368   1.33711
  Beta virt. eigenvalues --    1.43412   1.47780   1.51197   1.54480   1.56724
  Beta virt. eigenvalues --    1.57883   1.61101   1.63603   1.65348   1.68772
  Beta virt. eigenvalues --    1.69153   1.76268   1.79796   1.80976   1.83962
  Beta virt. eigenvalues --    1.85322   1.89484   1.98029   1.99982   2.04186
  Beta virt. eigenvalues --    2.04964   2.06917   2.12615   2.17622   2.26235
  Beta virt. eigenvalues --    2.33336   2.50360   2.54269   2.54939   2.55490
  Beta virt. eigenvalues --    2.57544   2.59604   2.59800   2.62752   2.63780
  Beta virt. eigenvalues --    2.64393   2.66935   2.71001   2.82815   2.86008
  Beta virt. eigenvalues --    2.96807   3.00910   3.06116   3.10769   3.19175
  Beta virt. eigenvalues --    3.21597   3.24069   3.28485   3.30235   3.34318
  Beta virt. eigenvalues --    3.37075   3.63396   3.82175   3.99007   4.05087
  Beta virt. eigenvalues --    4.09690   4.11786   4.49540  23.50267  23.61280
  Beta virt. eigenvalues --   23.73104  23.78951  23.80304  35.39219
          Condensed to atoms (all electrons):
              1          2          3          4          5          6
     1  C   13.312991   0.275258   0.309831   1.439222  -0.200657  -0.161252
     2  H    0.275258   0.446277  -0.031585   0.017104   0.006747  -0.003671
     3  H    0.309831  -0.031585   0.458005  -0.100789  -0.003564  -0.003913
     4  C    1.439222   0.017104  -0.100789  11.613179   0.354041   0.212997
     5  H   -0.200657   0.006747  -0.003564   0.354041   0.443953  -0.028509
     6  H   -0.161252  -0.003671  -0.003913   0.212997  -0.028509   0.468018
     7  C   -6.346899   0.078672   0.109501  -5.999302   0.130704   0.211478
     8  H    0.030743  -0.000212  -0.000466  -0.100046  -0.005756   0.005535
     9  H   -0.008857   0.003010   0.000069  -0.077445   0.005453  -0.005562
    10  C   -0.324213   0.004208   0.008811   1.990743   0.004117  -0.004015
    11  H   -0.000050   0.000089  -0.000040  -0.053139   0.000473   0.002894
    12  H   -0.010378   0.000021   0.000045  -0.059405   0.002851   0.000430
    13  N   -0.790477   0.005386   0.001415  -2.446769   0.025476   0.025349
    14  H    0.003261  -0.000003   0.000000   0.036060  -0.000073  -0.000067
    15  H    0.012030  -0.000040  -0.000003   0.062836  -0.000116  -0.000179
    16  H    0.015445  -0.000018  -0.000006   0.065662  -0.000208  -0.000153
    17  C   -0.774525  -0.057660  -0.003073  -0.069511  -0.007291   0.019458
    18  H   -0.045925  -0.005976   0.006000  -0.056012   0.000680  -0.000149
    19  H   -0.111456  -0.002848  -0.004251   0.054494  -0.000377  -0.000090
    20  H   -0.072168   0.005767  -0.005764  -0.014877   0.004019   0.000525
              7          8          9         10         11         12
     1  C   -6.346899   0.030743  -0.008857  -0.324213  -0.000050  -0.010378
     2  H    0.078672  -0.000212   0.003010   0.004208   0.000089   0.000021
     3  H    0.109501  -0.000466   0.000069   0.008811  -0.000040   0.000045
     4  C   -5.999302  -0.100046  -0.077445   1.990743  -0.053139  -0.059405
     5  H    0.130704  -0.005756   0.005453   0.004117   0.000473   0.002851
     6  H    0.211478   0.005535  -0.005562  -0.004015   0.002894   0.000430
     7  C   15.866541   0.500816   0.493146  -2.034635   0.035570   0.050924
     8  H    0.500816   0.437494  -0.042438  -0.088255   0.005025  -0.008015
     9  H    0.493146  -0.042438   0.434064  -0.096147  -0.008088   0.004960
    10  C   -2.034635  -0.088255  -0.096147  11.229409   0.351716   0.337329
    11  H    0.035570   0.005025  -0.008088   0.351716   0.389077  -0.029911
    12  H    0.050924  -0.008015   0.004960   0.337329  -0.029911   0.389611
    13  N    2.473264   0.006877   0.014567  -3.974947   0.004369   0.013305
    14  H   -0.027071  -0.000119  -0.000169   0.146060  -0.002113  -0.002387
    15  H   -0.056773  -0.002223   0.003775   0.187554  -0.009569   0.003400
    16  H   -0.061148   0.003948  -0.002571   0.198487   0.003525  -0.010360
    17  C    0.592348  -0.013682   0.007639   0.037560  -0.001566   0.003372
    18  H    0.048733  -0.001875   0.000650  -0.002414  -0.000014   0.000083
    19  H    0.006173   0.000373  -0.000186   0.002125   0.000003  -0.000003
    20  H    0.039612   0.000407  -0.000003  -0.001395   0.000019  -0.000034
             13         14         15         16         17         18
     1  C   -0.790477   0.003261   0.012030   0.015445  -0.774525  -0.045925
     2  H    0.005386  -0.000003  -0.000040  -0.000018  -0.057660  -0.005976
     3  H    0.001415   0.000000  -0.000003  -0.000006  -0.003073   0.006000
     4  C   -2.446769   0.036060   0.062836   0.065662  -0.069511  -0.056012
     5  H    0.025476  -0.000073  -0.000116  -0.000208  -0.007291   0.000680
     6  H    0.025349  -0.000067  -0.000179  -0.000153   0.019458  -0.000149
     7  C    2.473264  -0.027071  -0.056773  -0.061148   0.592348   0.048733
     8  H    0.006877  -0.000119  -0.002223   0.003948  -0.013682  -0.001875
     9  H    0.014567  -0.000169   0.003775  -0.002571   0.007639   0.000650
    10  C   -3.974947   0.146060   0.187554   0.198487   0.037560  -0.002414
    11  H    0.004369  -0.002113  -0.009569   0.003525  -0.001566  -0.000014
    12  H    0.013305  -0.002387   0.003400  -0.010360   0.003372   0.000083
    13  N   11.208237   0.122143   0.096549   0.086995   0.038510   0.002017
    14  H    0.122143   0.289257  -0.007254  -0.006941  -0.000174   0.000000
    15  H    0.096549  -0.007254   0.293331  -0.020372   0.000493  -0.000003
    16  H    0.086995  -0.006941  -0.020372   0.296316  -0.001805  -0.000052
    17  C    0.038510  -0.000174   0.000493  -0.001805   5.935743   0.399492
    18  H    0.002017   0.000000  -0.000003  -0.000052   0.399492   0.459525
    19  H    0.000072   0.000000   0.000000   0.000001   0.403362  -0.027988
    20  H    0.001366  -0.000001  -0.000005  -0.000004   0.393963  -0.033664
             19         20
     1  C   -0.111456  -0.072168
     2  H   -0.002848   0.005767
     3  H   -0.004251  -0.005764
     4  C    0.054494  -0.014877
     5  H   -0.000377   0.004019
     6  H   -0.000090   0.000525
     7  C    0.006173   0.039612
     8  H    0.000373   0.000407
     9  H   -0.000186  -0.000003
    10  C    0.002125  -0.001395
    11  H    0.000003   0.000019
    12  H   -0.000003  -0.000034
    13  N    0.000072   0.001366
    14  H    0.000000  -0.000001
    15  H    0.000000  -0.000005
    16  H    0.000001  -0.000004
    17  C    0.403362   0.393963
    18  H   -0.027988  -0.033664
    19  H    0.439701  -0.025941
    20  H   -0.025941   0.450314
 Mulliken atomic charges:
              1
     1  C   -0.551923
     2  H    0.259473
     3  H    0.259779
     4  C   -0.869044
     5  H    0.268036
     6  H    0.260876
     7  C   -0.111653
     8  H    0.271870
     9  H    0.274133
    10  C   -1.972098
    11  H    0.311729
    12  H    0.314163
    13  N    0.086295
    14  H    0.449593
    15  H    0.436569
    16  H    0.433259
    17  C   -0.902652
    18  H    0.256893
    19  H    0.266838
    20  H    0.257864
 Sum of Mulliken atomic charges =   0.00000
 Mulliken charges with hydrogens summed into heavy atoms:
              1
     1  C   -0.032671
     4  C   -0.340131
     7  C    0.434349
    10  C   -1.346206
    13  N    1.405716
    17  C   -0.121057
 Sum of Mulliken charges with hydrogens summed into heavy atoms =   0.00000
          Atomic-Atomic Spin Densities.
              1          2          3          4          5          6
     1  C    7.301611  -0.179640  -0.110295   1.754407  -0.181871  -0.168382
     2  H   -0.179640   0.008950   0.002973  -0.001278   0.001937   0.003225
     3  H   -0.110295   0.002973   0.002196   0.018231   0.001923   0.002093
     4  C    1.754407  -0.001278   0.018231   4.991754  -0.113773  -0.120012
     5  H   -0.181871   0.001937   0.001923  -0.113773   0.012165   0.006258
     6  H   -0.168382   0.003225   0.002093  -0.120012   0.006258   0.011775
     7  C   -6.544507   0.130792   0.059854  -5.261988   0.203309   0.198601
     8  H   -0.006005   0.000134  -0.000017  -0.007819   0.000737   0.000067
     9  H   -0.012548   0.000481   0.000024  -0.017453   0.000169   0.000776
    10  C   -0.072423   0.006659   0.007770   1.527221   0.029975   0.029245
    11  H   -0.006134   0.000047   0.000017  -0.021927   0.000263   0.000663
    12  H   -0.012062   0.000049   0.000021  -0.027419   0.000880   0.000388
    13  N   -0.803248   0.005627   0.001247  -2.402036   0.025098   0.024897
    14  H    0.004192  -0.000003   0.000000   0.027502  -0.000043  -0.000045
    15  H    0.012432  -0.000040  -0.000003   0.062644  -0.000113  -0.000222
    16  H    0.013871  -0.000026  -0.000003   0.064884  -0.000244  -0.000122
    17  C   -0.750755   0.017754   0.012416  -0.004339   0.012139   0.011118
    18  H   -0.029319   0.000637   0.000214  -0.006689   0.000400   0.000179
    19  H   -0.013465   0.000370   0.000249   0.002849   0.000060   0.000038
    20  H   -0.070937   0.000883   0.000928   0.002691   0.001825   0.000406
              7          8          9         10         11         12
     1  C   -6.544507  -0.006005  -0.012548  -0.072423  -0.006134  -0.012062
     2  H    0.130792   0.000134   0.000481   0.006659   0.000047   0.000049
     3  H    0.059854  -0.000017   0.000024   0.007770   0.000017   0.000021
     4  C   -5.261988  -0.007819  -0.017453   1.527221  -0.021927  -0.027419
     5  H    0.203309   0.000737   0.000169   0.029975   0.000263   0.000880
     6  H    0.198601   0.000067   0.000776   0.029245   0.000663   0.000388
     7  C    9.174406   0.006872   0.017289  -1.383217   0.013618   0.015965
     8  H    0.006872  -0.005511   0.002467  -0.002185  -0.000363   0.000973
     9  H    0.017289   0.002467  -0.005641  -0.002051   0.000881  -0.000248
    10  C   -1.383217  -0.002185  -0.002051   4.802000  -0.009348  -0.009270
    11  H    0.013618  -0.000363   0.000881  -0.009348  -0.012665   0.002381
    12  H    0.015965   0.000973  -0.000248  -0.009270   0.002381  -0.012109
    13  N    2.437641   0.007907   0.012364  -3.918460   0.017945   0.024325
    14  H    0.005897  -0.000120  -0.000107   0.120080   0.000467   0.000418
    15  H   -0.070260   0.000110  -0.000629   0.213427  -0.000031  -0.001391
    16  H   -0.072445  -0.000524  -0.000027   0.219588  -0.001320  -0.000255
    17  C    0.507931  -0.000512  -0.000260   0.026435  -0.000057   0.000788
    18  H    0.031867   0.000120  -0.000037  -0.002046   0.000010   0.000006
    19  H    0.005500   0.000006  -0.000007   0.000026   0.000000   0.000001
    20  H    0.045283   0.000189   0.000034   0.003468   0.000007   0.000027
             13         14         15         16         17         18
     1  C   -0.803248   0.004192   0.012432   0.013871  -0.750755  -0.029319
     2  H    0.005627  -0.000003  -0.000040  -0.000026   0.017754   0.000637
     3  H    0.001247   0.000000  -0.000003  -0.000003   0.012416   0.000214
     4  C   -2.402036   0.027502   0.062644   0.064884  -0.004339  -0.006689
     5  H    0.025098  -0.000043  -0.000113  -0.000244   0.012139   0.000400
     6  H    0.024897  -0.000045  -0.000222  -0.000122   0.011118   0.000179
     7  C    2.437641   0.005897  -0.070260  -0.072445   0.507931   0.031867
     8  H    0.007907  -0.000120   0.000110  -0.000524  -0.000512   0.000120
     9  H    0.012364  -0.000107  -0.000629  -0.000027  -0.000260  -0.000037
    10  C   -3.918460   0.120080   0.213427   0.219588   0.026435  -0.002046
    11  H    0.017945   0.000467  -0.000031  -0.001320  -0.000057   0.000010
    12  H    0.024325   0.000418  -0.001391  -0.000255   0.000788   0.000006
    13  N    4.407062  -0.159239  -0.216389  -0.222730   0.037803   0.001910
    14  H   -0.159239  -0.006946   0.009665   0.009678  -0.000089  -0.000001
    15  H   -0.216389   0.009665   0.006038   0.010855  -0.000396  -0.000016
    16  H   -0.222730   0.009678   0.010855   0.007177  -0.000597  -0.000025
    17  C    0.037803  -0.000089  -0.000396  -0.000597   0.105564   0.000861
    18  H    0.001910  -0.000001  -0.000016  -0.000025   0.000861   0.000946
    19  H    0.000070   0.000000   0.000000   0.000000   0.004175   0.000066
    20  H    0.001381   0.000000  -0.000003  -0.000011   0.009445   0.000985
             19         20
     1  C   -0.013465  -0.070937
     2  H    0.000370   0.000883
     3  H    0.000249   0.000928
     4  C    0.002849   0.002691
     5  H    0.000060   0.001825
     6  H    0.000038   0.000406
     7  C    0.005500   0.045283
     8  H    0.000006   0.000189
     9  H   -0.000007   0.000034
    10  C    0.000026   0.003468
    11  H    0.000000   0.000007
    12  H    0.000001   0.000027
    13  N    0.000070   0.001381
    14  H    0.000000   0.000000
    15  H    0.000000  -0.000003
    16  H    0.000000  -0.000011
    17  C    0.004175   0.009445
    18  H    0.000066   0.000985
    19  H   -0.000469   0.000256
    20  H    0.000256   0.003046
 Mulliken atomic spin densities:
              1
     1  C    0.124922
     2  H   -0.000469
     3  H   -0.000162
     4  C    0.467449
     5  H    0.001095
     6  H    0.000945
     7  C   -0.477593
     8  H   -0.003476
     9  H   -0.004524
    10  C    1.586892
    11  H   -0.015545
    12  H   -0.016534
    13  N   -0.716824
    14  H    0.011306
    15  H    0.025678
    16  H    0.027723
    17  C   -0.010577
    18  H    0.000068
    19  H   -0.000276
    20  H   -0.000098
 Sum of Mulliken atomic spin densities =   1.00000
 Electronic spatial extent (au):  <R**2>=           1065.0142
 Charge=              0.0000 electrons
 Dipole moment (field-independent basis, Debye):
    X=             -2.9126    Y=             -1.3701    Z=              0.3446  Tot=              3.2371
 Quadrupole moment (field-independent basis, Debye-Ang):
   XX=            -58.4202   YY=            -49.3368   ZZ=            -49.6638
   XY=             -2.5109   XZ=              0.8776   YZ=             -0.6546
 Traceless Quadrupole moment (field-independent basis, Debye-Ang):
   XX=             -5.9466   YY=              3.1368   ZZ=              2.8098
   XY=             -2.5109   XZ=              0.8776   YZ=             -0.6546
 Octapole moment (field-independent basis, Debye-Ang**2):
  XXX=            -98.6443  YYY=            -16.3908  ZZZ=              3.2153  XYY=            -21.9144
  XXY=             -9.7290  XXZ=              1.9063  XZZ=            -24.7194  YZZ=             -5.5644
  YYZ=              1.1062  XYZ=             -1.1142
 Hexadecapole moment (field-independent basis, Debye-Ang**3):
 XXXX=          -1681.6021 YYYY=           -262.9571 ZZZZ=           -169.7885 XXXY=            -39.2262
 XXXZ=             12.7321 YYYX=            -35.8175 YYYZ=              0.8979 ZZZX=              4.8918
 ZZZY=             -4.9093 XXYY=           -317.6509 XXZZ=           -307.2265 YYZZ=            -75.7332
 XXYZ=             -6.8309 YYXZ=              4.6617 ZZXY=            -12.6612
 N-N= 2.582218166708D+02 E-N=-1.648719652451D+03  KE= 3.788046081036D+02
                          Isotropic Fermi Contact Couplings
        Atom                 a.u.       MegaHertz       Gauss      10(-4) cm-1
     1  C(13)             -0.00023      -0.25519      -0.09106      -0.08512
     2  H(1)               0.00004       0.17772       0.06341       0.05928
     3  H(1)               0.00002       0.07956       0.02839       0.02654
     4  C(13)              0.00732       8.23355       2.93793       2.74642
     5  H(1)               0.00001       0.04215       0.01504       0.01406
     6  H(1)               0.00000      -0.00866      -0.00309      -0.00289
     7  C(13)              0.01695      19.05202       6.79824       6.35507
     8  H(1)               0.00054       2.39237       0.85366       0.79801
     9  H(1)               0.00053       2.36528       0.84399       0.78897
    10  C(13)              0.01971      22.15279       7.90467       7.38938
    11  H(1)              -0.00073      -3.25641      -1.16197      -1.08622
    12  H(1)              -0.00073      -3.28315      -1.17151      -1.09514
    13  N(14)              0.56012     180.97750      64.57727      60.36759
    14  H(1)              -0.00108      -4.81792      -1.71916      -1.60709
    15  H(1)              -0.00083      -3.70501      -1.32204      -1.23586
    16  H(1)              -0.00088      -3.95098      -1.40981      -1.31791
    17  C(13)              0.00009       0.09655       0.03445       0.03220
    18  H(1)               0.00002       0.11150       0.03979       0.03719
    19  H(1)               0.00002       0.08191       0.02923       0.02732
    20  H(1)               0.00004       0.15963       0.05696       0.05325
 --------------------------------------------------------
       Center         ----  Spin Dipole Couplings  ----
                      3XX-RR        3YY-RR        3ZZ-RR
 --------------------------------------------------------
     1   Atom        0.001646     -0.000765     -0.000881
     2   Atom        0.001337     -0.000723     -0.000615
     3   Atom        0.000986     -0.000400     -0.000586
     4   Atom        0.003612      0.000515     -0.004127
     5   Atom        0.001036     -0.000939     -0.000096
     6   Atom        0.000792      0.000652     -0.001444
     7   Atom       -0.008424      0.008847     -0.000423
     8   Atom        0.001056      0.000172     -0.001228
     9   Atom        0.001522     -0.004334      0.002812
    10   Atom       -0.012775      0.020198     -0.007423
    11   Atom       -0.000569      0.000659     -0.000090
    12   Atom       -0.002533     -0.002334      0.004867
    13   Atom        0.010274      0.004004     -0.014278
    14   Atom        0.012732     -0.005491     -0.007241
    15   Atom       -0.015820     -0.014103      0.029923
    16   Atom       -0.012619      0.015799     -0.003181
    17   Atom        0.001342     -0.000636     -0.000706
    18   Atom        0.001559     -0.000676     -0.000884
    19   Atom        0.000875     -0.000425     -0.000449
    20   Atom        0.001052     -0.000614     -0.000438
 --------------------------------------------------------
                        XY            XZ            YZ
 --------------------------------------------------------
     1   Atom        0.000598      0.000045     -0.000016
     2   Atom        0.000471      0.000572      0.000107
     3   Atom        0.000475      0.000026     -0.000022
     4   Atom        0.007218     -0.003127     -0.002480
     5   Atom        0.001296     -0.001125     -0.000557
     6   Atom        0.001643     -0.000159      0.000279
     7   Atom       -0.004502      0.002019     -0.008304
     8   Atom        0.001063      0.000384      0.004162
     9   Atom        0.000605     -0.001539      0.001379
    10   Atom        0.018461     -0.009929     -0.017603
    11   Atom       -0.000822     -0.004979      0.003736
    12   Atom        0.003568      0.001820      0.002467
    13   Atom        0.024835     -0.010020     -0.008897
    14   Atom       -0.017908      0.013595     -0.006587
    15   Atom       -0.001356      0.003773      0.000313
    16   Atom       -0.011526     -0.005535      0.017734
    17   Atom        0.000192     -0.000132      0.000020
    18   Atom       -0.000433     -0.000092      0.000031
    19   Atom       -0.000076      0.000001     -0.000001
    20   Atom       -0.000010     -0.000438      0.000024
 --------------------------------------------------------


 ---------------------------------------------------------------------------------
              Anisotropic Spin Dipole Couplings in Principal Axis System
 ---------------------------------------------------------------------------------

       Atom             a.u.   MegaHertz   Gauss  10(-4) cm-1        Axes

              Baa    -0.0009    -0.124    -0.044    -0.041 -0.2001  0.8178  0.5396
     1 C(13)  Bbb    -0.0009    -0.116    -0.041    -0.039  0.1107 -0.5284  0.8418
              Bcc     0.0018     0.240     0.086     0.080  0.9735  0.2281  0.0152
 
              Baa    -0.0008    -0.443    -0.158    -0.148 -0.2683  0.9303  0.2501
     2 H(1)   Bbb    -0.0008    -0.408    -0.145    -0.136 -0.1861 -0.3048  0.9340
              Bcc     0.0016     0.850     0.303     0.284  0.9452  0.2041  0.2549
 
              Baa    -0.0006    -0.321    -0.115    -0.107 -0.1466  0.4424  0.8848
     3 H(1)   Bbb    -0.0005    -0.284    -0.101    -0.095 -0.2571  0.8467 -0.4659
              Bcc     0.0011     0.605     0.216     0.202  0.9552  0.2958  0.0104
 
              Baa    -0.0053    -0.715    -0.255    -0.239 -0.6604  0.6956 -0.2828
     4 C(13)  Bbb    -0.0052    -0.698    -0.249    -0.233  0.0113  0.3858  0.9225
              Bcc     0.0105     1.413     0.504     0.471  0.7508  0.6060 -0.2627
 
              Baa    -0.0016    -0.843    -0.301    -0.281 -0.4436  0.8962  0.0003
     5 H(1)   Bbb    -0.0007    -0.398    -0.142    -0.133  0.4122  0.2038  0.8880
              Bcc     0.0023     1.242     0.443     0.414  0.7958  0.3940 -0.4598
 
              Baa    -0.0016    -0.849    -0.303    -0.283  0.2789 -0.3169  0.9065
     6 H(1)   Bbb    -0.0008    -0.415    -0.148    -0.138 -0.6349  0.6474  0.4216
              Bcc     0.0024     1.263     0.451     0.421  0.7205  0.6931  0.0206
 
              Baa    -0.0095    -1.278    -0.456    -0.426  0.9710  0.2392  0.0028
     7 C(13)  Bbb    -0.0052    -0.702    -0.251    -0.234 -0.1197  0.4757  0.8714
              Bcc     0.0148     1.981     0.707     0.661 -0.2071  0.8465 -0.4905
 
              Baa    -0.0048    -2.548    -0.909    -0.850  0.0688 -0.6508  0.7561
     8 H(1)   Bbb     0.0007     0.378     0.135     0.126  0.9402 -0.2112 -0.2673
              Bcc     0.0041     2.170     0.774     0.724  0.3336  0.7293  0.5974
 
              Baa    -0.0047    -2.518    -0.899    -0.840 -0.1447  0.9676 -0.2067
     9 H(1)   Bbb     0.0008     0.426     0.152     0.142  0.8428  0.2300  0.4866
              Bcc     0.0039     2.092     0.746     0.698 -0.5184  0.1038  0.8488
 
              Baa    -0.0216    -2.900    -1.035    -0.967  0.9145 -0.2813  0.2909
    10 C(13)  Bbb    -0.0159    -2.131    -0.760    -0.711 -0.1255  0.4862  0.8648
              Bcc     0.0375     5.031     1.795     1.678  0.3847  0.8273 -0.4093
 
              Baa    -0.0060    -3.206    -1.144    -1.069  0.6102 -0.3287  0.7208
    11 H(1)   Bbb    -0.0006    -0.301    -0.108    -0.101  0.5868  0.7988 -0.1325
              Bcc     0.0066     3.507     1.251     1.170 -0.5323  0.5038  0.6803
 
              Baa    -0.0060    -3.213    -1.146    -1.072 -0.7033  0.7095 -0.0432
    12 H(1)   Bbb    -0.0006    -0.297    -0.106    -0.099  0.6352  0.6000 -0.4862
              Bcc     0.0066     3.509     1.252     1.171  0.3191  0.3694  0.8728
 
              Baa    -0.0179    -0.691    -0.247    -0.231 -0.4149  0.7038  0.5767
    13 N(14)  Bbb    -0.0178    -0.688    -0.245    -0.229  0.5506 -0.3104  0.7749
              Bcc     0.0358     1.379     0.492     0.460  0.7244  0.6390 -0.2587
 
              Baa    -0.0170    -9.071    -3.237    -3.026  0.5934  0.7335 -0.3315
    14 H(1)   Bbb    -0.0128    -6.839    -2.440    -2.281 -0.1189  0.4872  0.8652
              Bcc     0.0298    15.910     5.677     5.307  0.7961 -0.4740  0.3763
 
              Baa    -0.0168    -8.978    -3.203    -2.995  0.8891  0.4516 -0.0748
    15 H(1)   Bbb    -0.0134    -7.153    -2.553    -2.386 -0.4504  0.8922  0.0328
              Bcc     0.0302    16.131     5.756     5.381  0.0815  0.0045  0.9967
 
              Baa    -0.0168    -8.977    -3.203    -2.994  0.8987  0.4067 -0.1640
    16 H(1)   Bbb    -0.0134    -7.142    -2.549    -2.382  0.3331 -0.3900  0.8584
              Bcc     0.0302    16.119     5.752     5.377 -0.2851  0.8261  0.4860
 
              Baa    -0.0007    -0.098    -0.035    -0.033  0.0949 -0.3954  0.9136
    17 C(13)  Bbb    -0.0006    -0.086    -0.031    -0.029 -0.0619  0.9136  0.4018
              Bcc     0.0014     0.184     0.066     0.061  0.9936  0.0947 -0.0622
 
              Baa    -0.0009    -0.474    -0.169    -0.158  0.0182 -0.1073  0.9941
    18 H(1)   Bbb    -0.0008    -0.403    -0.144    -0.134  0.1870  0.9771  0.1020
              Bcc     0.0016     0.877     0.313     0.293  0.9822 -0.1840 -0.0378
 
              Baa    -0.0004    -0.240    -0.086    -0.080  0.0023  0.0464  0.9989
    19 H(1)   Bbb    -0.0004    -0.229    -0.082    -0.076  0.0584  0.9972 -0.0464
              Bcc     0.0009     0.469     0.167     0.156  0.9983 -0.0584  0.0004
 
              Baa    -0.0006    -0.331    -0.118    -0.110 -0.0737  0.9503 -0.3025
    20 H(1)   Bbb    -0.0006    -0.294    -0.105    -0.098  0.2523  0.3112  0.9162
              Bcc     0.0012     0.625     0.223     0.208  0.9648 -0.0088 -0.2627
 

 ---------------------------------------------------------------------------------

 Calling FoFJK, ICntrl=      2127 FMM=F ISym2X=0 I1Cent= 0 IOpClX= 1 NMat=1 NMatS=1 NMatT=0.
 ***** Axes restored to original set *****
 -------------------------------------------------------------------
 Center     Atomic                   Forces (Hartrees/Bohr)
 Number     Number              X              Y              Z
 -------------------------------------------------------------------
      1        6           0.004056106    0.005623266    0.000121119
      2        1           0.001547825   -0.004781946    0.001127930
      3        1          -0.006213788   -0.000135118   -0.000454934
      4        6           0.006074998   -0.004029265   -0.003714968
      5        1          -0.001598943    0.005173838   -0.001262874
      6        1          -0.002658721   -0.000847189    0.004906792
      7        6          -0.007758052    0.002540845    0.001492179
      8        1           0.002807132    0.000510821   -0.004120248
      9        1           0.001753221   -0.004337585    0.000016561
     10        6           0.013129104   -0.006329117   -0.004374248
     11        1          -0.003143890   -0.001894286    0.005614975
     12        1          -0.001847353    0.006952043   -0.001491160
     13        7          -0.030459254    0.002394283   -0.003080695
     14        1           0.007064794    0.012615935    0.015935426
     15        1           0.005805635   -0.020753138    0.005732664
     16        1           0.010681500    0.007060952   -0.018365609
     17        6          -0.000246618   -0.000939875    0.006604360
     18        1           0.004411954   -0.000246583    0.000222285
     19        1          -0.002765683   -0.003240481   -0.004075391
     20        1          -0.000639965    0.004662600   -0.000834164
 -------------------------------------------------------------------
 Cartesian Forces:  Max     0.030459254 RMS     0.007321023

 GradGradGradGradGradGradGradGradGradGradGradGradGradGradGradGradGradGrad
 Berny optimization.
 Internal  Forces:  Max     0.022360456 RMS     0.004419123
 Search for a local minimum.
 Step number   1 out of a maximum of  110
 All quantities printed in internal units (Hartrees-Bohrs-Radians)
 Mixed Optimization -- RFO/linear search
 Second derivative matrix not updated -- first step.
     Eigenvalues ---    0.00230   0.00305   0.00320   0.00379   0.00489
     Eigenvalues ---    0.03324   0.03408   0.03748   0.03855   0.04781
     Eigenvalues ---    0.04784   0.04829   0.04914   0.05287   0.05368
     Eigenvalues ---    0.05391   0.05582   0.07962   0.08037   0.08464
     Eigenvalues ---    0.08666   0.11823   0.11975   0.12305   0.12448
     Eigenvalues ---    0.16000   0.16000   0.16000   0.16000   0.16000
     Eigenvalues ---    0.16000   0.21896   0.21936   0.21937   0.21943
     Eigenvalues ---    0.28982   0.29084   0.29493   0.30279   0.30337
     Eigenvalues ---    0.35035   0.35039   0.35103   0.35191   0.35236
     Eigenvalues ---    0.35254   0.35296   0.35420   0.35635   0.35910
     Eigenvalues ---    0.35998   0.45801   0.45856   0.458711000.00000
     Eigenvalues --- 1000.000001000.000001000.000001000.000001000.00000
     Eigenvalues --- 1000.000001000.000001000.000001000.000001000.00000
     Eigenvalues --- 1000.000001000.000001000.000001000.000001000.00000
     Eigenvalues --- 1000.000001000.000001000.000001000.000001000.00000
     Eigenvalues --- 1000.000001000.000001000.000001000.000001000.00000
     Eigenvalues --- 1000.000001000.000001000.000001000.000001000.00000
     Eigenvalues --- 1000.000001000.000001000.000001000.000001000.00000
     Eigenvalues --- 1000.000001000.000001000.000001000.000001000.00000
     Eigenvalues --- 1000.000001000.000001000.000001000.000001000.00000
 RFO step:  Lambda=-4.87858443D-03 EMin= 2.30000000D-03
 Linear search not attempted -- first point.
 Iteration  1 RMS(Cart)=  0.03025070 RMS(Int)=  0.00033440
 Iteration  2 RMS(Cart)=  0.00047568 RMS(Int)=  0.00004220
 Iteration  3 RMS(Cart)=  0.00000013 RMS(Int)=  0.00004220
 Variable       Old X    -DE/DX   Delta X   Delta X   Delta X     New X
                                 (Linear)    (Quad)   (Total)
    R1        2.05508   0.00513   0.00000   0.01440   0.01440   2.06948
    R2        2.04999   0.00617   0.00000   0.01719   0.01719   2.06717
    R3        2.89828  -0.00252   0.00000  -0.00853  -0.00853   2.88974
    R4        2.88985  -0.00153   0.00000  -0.00511  -0.00511   2.88474
    R5        2.05611   0.00556   0.00000   0.01564   0.01564   2.07175
    R6        2.05366   0.00563   0.00000   0.01579   0.01579   2.06945
    R7        2.90041  -0.00212   0.00000  -0.00718  -0.00718   2.89322
    R8        2.05293   0.00493   0.00000   0.01380   0.01380   2.06673
    R9        2.05618   0.00454   0.00000   0.01279   0.01279   2.06897
   R10        2.87411   0.00038   0.00000   0.00125   0.00125   2.87535
   R11        2.04223   0.00667   0.00000   0.01832   0.01832   2.06056
   R12        2.04085   0.00732   0.00000   0.02008   0.02008   2.06092
   R13        2.87296  -0.00692   0.00000  -0.02243  -0.02243   2.85052
   R14        1.91057   0.02151   0.00000   0.04646   0.04646   1.95703
   R15        1.90995   0.02227   0.00000   0.04806   0.04806   1.95801
   R16        1.90977   0.02236   0.00000   0.04823   0.04823   1.95801
   R17        2.05198   0.00434   0.00000   0.01212   0.01212   2.06409
   R18        2.04657   0.00589   0.00000   0.01630   0.01630   2.06287
   R19        2.05265   0.00475   0.00000   0.01328   0.01328   2.06593
    A1        1.85233  -0.00062   0.00000   0.00346   0.00345   1.85578
    A2        1.90717   0.00111   0.00000  -0.00122  -0.00143   1.90574
    A3        1.91777   0.00097   0.00000  -0.00362  -0.00378   1.91399
    A4        1.87786   0.00202   0.00000   0.01670   0.01676   1.89462
    A5        1.90196   0.00102   0.00000   0.00762   0.00774   1.90971
    A6        2.00058  -0.00424   0.00000  -0.02069  -0.02075   1.97983
    A7        1.90902   0.00058   0.00000  -0.00133  -0.00137   1.90765
    A8        1.89916   0.00081   0.00000   0.00562   0.00566   1.90481
    A9        1.98342  -0.00256   0.00000  -0.01199  -0.01199   1.97142
   A10        1.86282  -0.00052   0.00000  -0.00046  -0.00047   1.86235
   A11        1.90609   0.00075   0.00000   0.00064   0.00059   1.90668
   A12        1.89948   0.00106   0.00000   0.00825   0.00827   1.90775
   A13        1.92231   0.00111   0.00000   0.00548   0.00548   1.92779
   A14        1.91043   0.00104   0.00000   0.00621   0.00622   1.91664
   A15        1.93473  -0.00291   0.00000  -0.01219  -0.01217   1.92255
   A16        1.87402  -0.00099   0.00000  -0.00716  -0.00717   1.86684
   A17        1.90906   0.00081   0.00000   0.00239   0.00240   1.91146
   A18        1.91229   0.00102   0.00000   0.00549   0.00551   1.91780
   A19        1.96439  -0.00147   0.00000  -0.00919  -0.00927   1.95512
   A20        1.96325  -0.00140   0.00000  -0.00801  -0.00812   1.95513
   A21        1.92665   0.00439   0.00000   0.02206   0.02207   1.94872
   A22        1.90426   0.00071   0.00000  -0.00335  -0.00343   1.90083
   A23        1.84931  -0.00111   0.00000  -0.00072  -0.00067   1.84864
   A24        1.84903  -0.00107   0.00000   0.00021   0.00024   1.84927
   A25        1.95498  -0.00097   0.00000  -0.00974  -0.00975   1.94522
   A26        1.94166   0.00025   0.00000   0.00345   0.00341   1.94507
   A27        1.94158   0.00029   0.00000   0.00368   0.00364   1.94523
   A28        1.87552  -0.00003   0.00000  -0.00374  -0.00375   1.87177
   A29        1.87562  -0.00007   0.00000  -0.00410  -0.00411   1.87151
   A30        1.87049   0.00057   0.00000   0.01086   0.01081   1.88130
   A31        1.96108  -0.00095   0.00000  -0.00685  -0.00687   1.95421
   A32        1.92647   0.00079   0.00000   0.00725   0.00726   1.93373
   A33        1.94020  -0.00038   0.00000  -0.00370  -0.00373   1.93647
   A34        1.86862   0.00036   0.00000   0.00475   0.00476   1.87338
   A35        1.88520   0.00021   0.00000  -0.00314  -0.00319   1.88201
   A36        1.87886   0.00002   0.00000   0.00215   0.00216   1.88101
    D1       -3.12574  -0.00061   0.00000   0.00835   0.00838  -3.11737
    D2       -1.09684  -0.00045   0.00000   0.01021   0.01023  -1.08662
    D3        1.02244  -0.00023   0.00000   0.01682   0.01682   1.03927
    D4       -1.12190   0.00031   0.00000   0.02068   0.02073  -1.10116
    D5        0.90700   0.00046   0.00000   0.02254   0.02258   0.92958
    D6        3.02629   0.00068   0.00000   0.02915   0.02918   3.05547
    D7        0.99641   0.00032   0.00000   0.02915   0.02912   1.02553
    D8        3.02531   0.00048   0.00000   0.03101   0.03096   3.05628
    D9       -1.13858   0.00070   0.00000   0.03762   0.03756  -1.10102
   D10       -1.01333   0.00008   0.00000   0.00360   0.00357  -1.00976
   D11        1.07104   0.00046   0.00000   0.01005   0.01000   1.08105
   D12       -3.12848   0.00075   0.00000   0.01510   0.01504  -3.11343
   D13       -3.03610  -0.00030   0.00000  -0.00287  -0.00286  -3.03896
   D14       -0.95173   0.00008   0.00000   0.00357   0.00357  -0.94816
   D15        1.13194   0.00037   0.00000   0.00862   0.00861   1.14055
   D16        1.14203  -0.00081   0.00000  -0.01613  -0.01607   1.12596
   D17       -3.05678  -0.00043   0.00000  -0.00968  -0.00964  -3.06642
   D18       -0.97311  -0.00013   0.00000  -0.00463  -0.00460  -0.97771
   D19        1.08675  -0.00010   0.00000  -0.00494  -0.00492   1.08183
   D20       -0.96982  -0.00018   0.00000  -0.00320  -0.00319  -0.97301
   D21       -3.08121  -0.00027   0.00000  -0.00631  -0.00630  -3.08751
   D22       -1.04987   0.00036   0.00000   0.00459   0.00460  -1.04527
   D23       -3.10644   0.00029   0.00000   0.00633   0.00632  -3.10011
   D24        1.06536   0.00020   0.00000   0.00322   0.00321   1.06857
   D25       -3.07733  -0.00002   0.00000   0.00021   0.00021  -3.07712
   D26        1.14929  -0.00009   0.00000   0.00195   0.00193   1.15122
   D27       -0.96210  -0.00018   0.00000  -0.00117  -0.00118  -0.96328
   D28        1.08486  -0.00062   0.00000  -0.00929  -0.00925   1.07561
   D29       -1.07486   0.00066   0.00000   0.00851   0.00846  -1.06640
   D30       -3.13605  -0.00002   0.00000  -0.00133  -0.00134  -3.13739
   D31       -3.07531  -0.00059   0.00000  -0.00874  -0.00869  -3.08400
   D32        1.04816   0.00069   0.00000   0.00906   0.00902   1.05718
   D33       -1.01303   0.00001   0.00000  -0.00078  -0.00079  -1.01382
   D34       -1.02543  -0.00072   0.00000  -0.01282  -0.01277  -1.03820
   D35        3.09803   0.00056   0.00000   0.00499   0.00495   3.10298
   D36        1.03684  -0.00012   0.00000  -0.00486  -0.00486   1.03198
   D37       -3.14070   0.00001   0.00000  -0.00110  -0.00110   3.14138
   D38       -1.04118  -0.00052   0.00000  -0.01018  -0.01019  -1.05137
   D39        1.04289   0.00056   0.00000   0.00827   0.00829   1.05118
   D40       -1.00916   0.00006   0.00000  -0.00007  -0.00004  -1.00920
   D41        1.09036  -0.00047   0.00000  -0.00915  -0.00913   1.08123
   D42       -3.10875   0.00061   0.00000   0.00931   0.00935  -3.09940
   D43        1.01249  -0.00013   0.00000  -0.00411  -0.00414   1.00836
   D44        3.11201  -0.00066   0.00000  -0.01319  -0.01323   3.09879
   D45       -1.08710   0.00042   0.00000   0.00527   0.00525  -1.08185
         Item               Value     Threshold  Converged?
 Maximum Force            0.022360     0.000450     NO 
 RMS     Force            0.004419     0.000300     NO 
 Maximum Displacement     0.124440     0.001800     NO 
 RMS     Displacement     0.030384     0.001200     NO 
 Predicted change in Energy=-2.487108D-03
 GradGradGradGradGradGradGradGradGradGradGradGradGradGradGradGradGradGrad

                          Input orientation:                          
 ---------------------------------------------------------------------
 Center     Atomic      Atomic             Coordinates (Angstroms)
 Number     Number       Type             X           Y           Z
 ---------------------------------------------------------------------
      1          6           0       -2.122409   -0.788290    0.091165
      2          1           0       -1.894622   -1.826701    0.354054
      3          1           0       -3.212404   -0.698070    0.110860
      4          6           0       -1.538018    0.139801    1.156786
      5          1           0       -1.786348    1.178352    0.908452
      6          1           0       -2.012594   -0.075668    2.119910
      7          6           0       -0.019660    0.004179    1.299073
      8          1           0        0.477837    0.279075    0.364711
      9          1           0        0.242092   -1.038693    1.505494
     10          6           0        0.483208    0.896380    2.424364
     11          1           0        0.055437    0.619009    3.388235
     12          1           0        0.274588    1.949976    2.235139
     13          7           0        1.978914    0.793151    2.590414
     14          1           0        2.317817    1.401661    3.356810
     15          1           0        2.269015   -0.175571    2.816221
     16          1           0        2.476618    1.079782    1.728032
     17          6           0       -1.613973   -0.491610   -1.317308
     18          1           0       -0.540351   -0.669854   -1.410149
     19          1           0       -2.113773   -1.126327   -2.051456
     20          1           0       -1.805374    0.549419   -1.590808
 ---------------------------------------------------------------------
                    Distance matrix (angstroms):
                    1          2          3          4          5
     1  C    0.000000
     2  H    1.095123   0.000000
     3  H    1.093899   1.751999   0.000000
     4  C    1.529187   2.153758   2.144658   0.000000
     5  H    2.156055   3.057682   2.488122   1.096323   0.000000
     6  H    2.153066   2.489635   2.421407   1.095106   1.758233
     7  C    2.551196   2.785796   3.478307   1.531029   2.156954
     8  H    2.824071   3.172217   3.825850   2.170357   2.496174
     9  H    2.766567   2.551924   3.740932   2.163155   3.063709
    10  C    3.882160   4.165984   4.642426   2.502902   2.743789
    11  H    4.194541   4.357807   4.811930   2.783542   3.139166
    12  H    4.223780   4.744179   4.866603   2.779410   2.569622
    13  N    5.056486   5.183552   5.943208   3.853696   4.141808
    14  H    5.930930   6.097828   6.747475   4.615178   4.784192
    15  H    5.204417   5.111200   6.134977   4.164935   4.681736
    16  H    5.226862   5.426159   6.175839   4.162594   4.342155
    17  C    1.526539   2.157470   2.153432   2.554523   2.787919
    18  H    2.184235   2.506942   3.074758   2.870546   3.216253
    19  H    2.169141   2.514961   2.462926   3.496768   3.765608
    20  H    2.172328   3.071872   2.536067   2.790795   2.577250
                    6          7          8          9         10
     6  H    0.000000
     7  C    2.156834   0.000000
     8  H    3.067379   1.093666   0.000000
     9  H    2.527555   1.094854   1.758828   0.000000
    10  C    2.695663   1.521571   2.150178   2.155682   0.000000
    11  H    2.523486   2.179048   3.071754   2.515458   1.090399
    12  H    3.057403   2.179203   2.516291   3.076618   1.090593
    13  N    4.111978   2.506858   2.733361   2.747591   1.508432
    14  H    4.739714   3.413362   3.687599   3.700181   2.119094
    15  H    4.339010   2.751741   3.070004   2.563475   2.119372
    16  H    4.652060   2.751788   2.548510   3.087162   2.119481
    17  C    3.485164   3.103722   2.792635   3.422351   4.508302
    18  H    3.870643   2.839952   2.255504   3.041256   4.266644
    19  H    4.302838   4.109671   3.811753   4.267280   5.555953
    20  H    3.768700   3.440563   3.018309   4.037488   4.634608
                   11         12         13         14         15
    11  H    0.000000
    12  H    1.774579   0.000000
    13  N    2.089643   2.090261   0.000000
    14  H    2.394138   2.394490   1.035617   0.000000
    15  H    2.420430   2.972094   1.036132   1.668017   0.000000
    16  H    2.971650   2.421432   1.036132   1.667856   1.674265
    17  C    5.114933   4.706154   5.461661   6.394594   5.680100
    18  H    5.004060   4.562429   4.948897   5.931627   5.098927
    19  H    6.110803   5.791615   6.479309   7.434989   6.618689
    20  H    5.315857   4.574458   5.644720   6.496611   6.045507
                   16         17         18         19         20
    16  H    0.000000
    17  C    5.336320   0.000000
    18  H    4.691642   1.092271   0.000000
    19  H    6.342172   1.091622   1.759347   0.000000
    20  H    5.443477   1.093243   1.766224   1.765059   0.000000
 Stoichiometry    C5H14N(2)
 Framework group  C1[X(C5H14N)]
 Deg. of freedom    54
 Full point group                 C1      NOp   1
 Largest Abelian subgroup         C1      NOp   1
 Largest concise Abelian subgroup C1      NOp   1
                         Standard orientation:                         
 ---------------------------------------------------------------------
 Center     Atomic      Atomic             Coordinates (Angstroms)
 Number     Number       Type             X           Y           Z
 ---------------------------------------------------------------------
      1          6           0       -2.099019   -0.432272   -0.347278
      2          1           0       -2.065398   -0.376633   -1.440470
      3          1           0       -2.827716   -1.210129   -0.101196
      4          6           0       -0.729185   -0.865606    0.176352
      5          1           0       -0.767770   -0.945922    1.269048
      6          1           0       -0.499165   -1.866107   -0.204890
      7          6           0        0.393325    0.097354   -0.219536
      8          1           0        0.215160    1.088284    0.207570
      9          1           0        0.412885    0.217323   -1.307622
     10          6           0        1.734258   -0.432273    0.266851
     11          1           0        1.979976   -1.395726   -0.180756
     12          1           0        1.766350   -0.528560    1.352710
     13          7           0        2.865546    0.495300   -0.100793
     14          1           0        3.776534    0.132032    0.231835
     15          1           0        2.938909    0.614957   -1.127375
     16          1           0        2.737665    1.433915    0.318991
     17          6           0       -2.571331    0.903607    0.220763
     18          1           0       -1.926917    1.729689   -0.088068
     19          1           0       -3.582143    1.134325   -0.120803
     20          1           0       -2.585481    0.880591    1.313672
 ---------------------------------------------------------------------
 Rotational constants (GHZ):      8.6417054      1.3275844      1.2326993
 Standard basis: 6-311+G(d) (5D, 7F)
 There are   174 symmetry adapted basis functions of A   symmetry.
 Integral buffers will be    131072 words long.
 Raffenetti 2 integral format.
 Two-electron integral symmetry is turned on.
   174 basis functions,   286 primitive gaussians,   180 cartesian basis functions
    26 alpha electrons       25 beta electrons
       nuclear repulsion energy       258.4284637661 Hartrees.
 NAtoms=   20 NActive=   20 NUniq=   20 SFac= 7.50D-01 NAtFMM=   80 NAOKFM=F Big=F
 One-electron integrals computed using PRISM.
 NBasis=   174 RedAO= T  NBF=   174
 NBsUse=   174 1.00D-06 NBFU=   174
 Initial guess read from the read-write file.
 B after Tr=     0.000000    0.000000    0.000000
         Rot=    1.000000    0.000000    0.000000    0.000000 Ang=   0.00 deg.
 Initial guess orbital symmetries:
 Alpha Orbitals:
       Occupied  (A) (A) (A) (A) (A) (A) (A) (A) (A) (A) (A) (A)
                 (A) (A) (A) (A) (A) (A) (A) (A) (A) (A) (A) (A)
                 (A) (A)
       Virtual   (A) (A) (A) (A) (A) (A) (A) (A) (A) (A) (A) (A)
                 (A) (A) (A) (A) (A) (A) (A) (A) (A) (A) (A) (A)
                 (A) (A) (A) (A) (A) (A) (A) (A) (A) (A) (A) (A)
                 (A) (A) (A) (A) (A) (A) (A) (A) (A) (A) (A) (A)
                 (A) (A) (A) (A) (A) (A) (A) (A) (A) (A) (A) (A)
                 (A) (A) (A) (A) (A) (A) (A) (A) (A) (A) (A) (A)
                 (A) (A) (A) (A) (A) (A) (A) (A) (A) (A) (A) (A)
                 (A) (A) (A) (A) (A) (A) (A) (A) (A) (A) (A) (A)
                 (A) (A) (A) (A) (A) (A) (A) (A) (A) (A) (A) (A)
                 (A) (A) (A) (A) (A) (A) (A) (A) (A) (A) (A) (A)
                 (A) (A) (A) (A) (A) (A) (A) (A) (A) (A) (A) (A)
                 (A) (A) (A) (A) (A) (A) (A) (A) (A) (A) (A) (A)
                 (A) (A) (A) (A)
 Beta  Orbitals:
       Occupied  (A) (A) (A) (A) (A) (A) (A) (A) (A) (A) (A) (A)
                 (A) (A) (A) (A) (A) (A) (A) (A) (A) (A) (A) (A)
                 (A)
       Virtual   (A) (A) (A) (A) (A) (A) (A) (A) (A) (A) (A) (A)
                 (A) (A) (A) (A) (A) (A) (A) (A) (A) (A) (A) (A)
                 (A) (A) (A) (A) (A) (A) (A) (A) (A) (A) (A) (A)
                 (A) (A) (A) (A) (A) (A) (A) (A) (A) (A) (A) (A)
                 (A) (A) (A) (A) (A) (A) (A) (A) (A) (A) (A) (A)
                 (A) (A) (A) (A) (A) (A) (A) (A) (A) (A) (A) (A)
                 (A) (A) (A) (A) (A) (A) (A) (A) (A) (A) (A) (A)
                 (A) (A) (A) (A) (A) (A) (A) (A) (A) (A) (A) (A)
                 (A) (A) (A) (A) (A) (A) (A) (A) (A) (A) (A) (A)
                 (A) (A) (A) (A) (A) (A) (A) (A) (A) (A) (A) (A)
                 (A) (A) (A) (A) (A) (A) (A) (A) (A) (A) (A) (A)
                 (A) (A) (A) (A) (A) (A) (A) (A) (A) (A) (A) (A)
                 (A) (A) (A) (A) (A)
 Initial guess <Sx>= 0.0000 <Sy>= 0.0000 <Sz>= 0.5000 <S**2>= 0.7507 S= 0.5004
 Harris functional with IExCor= 1009 diagonalized for initial guess.
 ExpMin= 4.38D-02 ExpMax= 6.29D+03 ExpMxC= 9.49D+02 IAcc=2 IRadAn=         0 AccDes= 0.00D+00
 HarFok:  IExCor= 1009 AccDes= 0.00D+00 IRadAn=         0 IDoV= 1
 ScaDFX=  1.000000  1.000000  1.000000  1.000000
 FoFCou: FMM=F IPFlag=           0 FMFlag=      100000 FMFlg1=           0
         NFxFlg=           0 DoJE=T BraDBF=F KetDBF=T FulRan=T
         Omega=  0.000000  0.000000  1.000000  0.000000  0.000000 ICntrl=     500 IOpCl=  0
[...]
    17  C    0.404823   0.389862
    18  H   -0.027725  -0.033831
    19  H    0.438233  -0.025387
    20  H   -0.025387   0.451694
 Mulliken atomic charges:
              1
     1  C   -0.568534
     2  H    0.261326
     3  H    0.259836
     4  C   -0.852257
     5  H    0.270453
     6  H    0.259236
     7  C   -0.120552
     8  H    0.272897
     9  H    0.273211
    10  C   -1.964604
    11  H    0.304622
    12  H    0.307029
    13  N    0.124167
    14  H    0.426404
    15  H    0.424661
    16  H    0.426531
    17  C   -0.886092
    18  H    0.257951
    19  H    0.266141
    20  H    0.257572
 Sum of Mulliken atomic charges =   0.00000
 Mulliken charges with hydrogens summed into heavy atoms:
              1
     1  C   -0.047372
     4  C   -0.322568
     7  C    0.425557
    10  C   -1.352953
    13  N    1.401763
    17  C   -0.104428
 Sum of Mulliken charges with hydrogens summed into heavy atoms =   0.00000
          Atomic-Atomic Spin Densities.
              1          2          3          4          5          6
     1  C    7.618419  -0.183208  -0.107299   1.078327  -0.176870  -0.163617
     2  H   -0.183208   0.008860   0.002785   0.015364   0.001822   0.003164
     3  H   -0.107299   0.002785   0.002020   0.025798   0.001710   0.001810
     4  C    1.078327   0.015364   0.025798   4.365239  -0.090126  -0.097476
     5  H   -0.176870   0.001822   0.001710  -0.090126   0.011013   0.005721
     6  H   -0.163617   0.003164   0.001810  -0.097476   0.005721   0.010965
     7  C   -5.801643   0.111465   0.048115  -3.979158   0.167957   0.163001
     8  H   -0.006210   0.000135  -0.000021  -0.002992   0.000681   0.000062
     9  H   -0.010393   0.000383   0.000009  -0.016537   0.000169   0.000670
    10  C   -0.415055   0.012489   0.009511   1.149495   0.040588   0.040813
    11  H    0.001948  -0.000001   0.000001   0.002030  -0.000025   0.000179
    12  H   -0.004896   0.000025   0.000008  -0.004633   0.000392   0.000073
    13  N   -0.797241   0.005274   0.001108  -2.237254   0.023777   0.023913
    14  H    0.007045  -0.000006  -0.000001   0.044016  -0.000097  -0.000105
    15  H    0.014184  -0.000045  -0.000003   0.065838  -0.000122  -0.000242
    16  H    0.013869  -0.000022  -0.000002   0.063053  -0.000240  -0.000115
    17  C   -0.844519   0.019278   0.013219   0.054090   0.012540   0.011831
    18  H   -0.032976   0.000694   0.000217  -0.004273   0.000371   0.000180
    19  H   -0.011583   0.000317   0.000194   0.002901   0.000047   0.000030
    20  H   -0.055726   0.000680   0.000631   0.005192   0.001420   0.000304
              7          8          9         10         11         12
     1  C   -5.801643  -0.006210  -0.010393  -0.415055   0.001948  -0.004896
     2  H    0.111465   0.000135   0.000383   0.012489  -0.000001   0.000025
     3  H    0.048115  -0.000021   0.000009   0.009511   0.000001   0.000008
     4  C   -3.979158  -0.002992  -0.016537   1.149495   0.002030  -0.004633
     5  H    0.167957   0.000681   0.000169   0.040588  -0.000025   0.000392
     6  H    0.163001   0.000062   0.000670   0.040813   0.000179   0.000073
     7  C    7.146492  -0.000083   0.012790  -0.891120  -0.010269  -0.005916
     8  H   -0.000083  -0.004232   0.002372   0.000697  -0.000338   0.000928
     9  H    0.012790   0.002372  -0.004600   0.000617   0.000828  -0.000246
    10  C   -0.891120   0.000697   0.000617   4.707352   0.006470   0.004178
    11  H   -0.010269  -0.000338   0.000828   0.006470  -0.012284   0.002119
    12  H   -0.005916   0.000928  -0.000246   0.004178   0.002119  -0.011683
    13  N    2.176930   0.006314   0.012100  -3.798477  -0.002400   0.006501
    14  H   -0.004146  -0.000122  -0.000134   0.183677   0.000998   0.000745
    15  H   -0.074654   0.000128  -0.000618   0.235222   0.000529  -0.001170
    16  H   -0.071741  -0.000393  -0.000044   0.227519  -0.001034   0.000232
    17  C    0.492482   0.000540  -0.000964   0.050617  -0.000357   0.000456
    18  H    0.030931   0.000076  -0.000058  -0.001332   0.000005  -0.000004
    19  H    0.004122   0.000008  -0.000009   0.000107   0.000000   0.000000
    20  H    0.031519   0.000221   0.000033   0.004113   0.000003   0.000010
             13         14         15         16         17         18
     1  C   -0.797241   0.007045   0.014184   0.013869  -0.844519  -0.032976
     2  H    0.005274  -0.000006  -0.000045  -0.000022   0.019278   0.000694
     3  H    0.001108  -0.000001  -0.000003  -0.000002   0.013219   0.000217
     4  C   -2.237254   0.044016   0.065838   0.063053   0.054090  -0.004273
     5  H    0.023777  -0.000097  -0.000122  -0.000240   0.012540   0.000371
     6  H    0.023913  -0.000105  -0.000242  -0.000115   0.011831   0.000180
     7  C    2.176930  -0.004146  -0.074654  -0.071741   0.492482   0.030931
     8  H    0.006314  -0.000122   0.000128  -0.000393   0.000540   0.000076
     9  H    0.012100  -0.000134  -0.000618  -0.000044  -0.000964  -0.000058
    10  C   -3.798477   0.183677   0.235222   0.227519   0.050617  -0.001332
    11  H   -0.002400   0.000998   0.000529  -0.001034  -0.000357   0.000005
    12  H    0.006501   0.000745  -0.001170   0.000232   0.000456  -0.000004
    13  N    4.507580  -0.230475  -0.241642  -0.234261   0.041083   0.002059
    14  H   -0.230475   0.006574   0.012931   0.012426  -0.000206  -0.000002
    15  H   -0.241642   0.012931   0.012062   0.011590  -0.000541  -0.000022
    16  H   -0.234261   0.012426   0.011590   0.011067  -0.000630  -0.000028
    17  C    0.041083  -0.000206  -0.000541  -0.000630   0.127011   0.002413
    18  H    0.002059  -0.000002  -0.000022  -0.000028   0.002413   0.000925
    19  H    0.000057   0.000000   0.000000   0.000000   0.003735   0.000040
    20  H    0.001232  -0.000001  -0.000003  -0.000012   0.007329   0.000798
             19         20
     1  C   -0.011583  -0.055726
     2  H    0.000317   0.000680
     3  H    0.000194   0.000631
     4  C    0.002901   0.005192
     5  H    0.000047   0.001420
     6  H    0.000030   0.000304
     7  C    0.004122   0.031519
     8  H    0.000008   0.000221
     9  H   -0.000009   0.000033
    10  C    0.000107   0.004113
    11  H    0.000000   0.000003
    12  H    0.000000   0.000010
    13  N    0.000057   0.001232
    14  H    0.000000  -0.000001
    15  H    0.000000  -0.000003
    16  H    0.000000  -0.000012
    17  C    0.003735   0.007329
    18  H    0.000040   0.000798
    19  H   -0.000418   0.000188
    20  H    0.000188   0.002144
 Mulliken atomic spin densities:
              1
     1  C    0.122554
     2  H   -0.000548
     3  H   -0.000191
     4  C    0.438895
     5  H    0.000730
     6  H    0.001162
     7  C   -0.452926
     8  H   -0.002229
     9  H   -0.003630
    10  C    1.567480
    11  H   -0.011598
    12  H   -0.012882
    13  N   -0.733822
    14  H    0.033118
    15  H    0.033421
    16  H    0.031235
    17  C   -0.010592
    18  H    0.000013
    19  H   -0.000264
    20  H    0.000073
 Sum of Mulliken atomic spin densities =   1.00000
 Electronic spatial extent (au):  <R**2>=           1054.0905
 Charge=              0.0000 electrons
 Dipole moment (field-independent basis, Debye):
    X=             -2.8398    Y=             -1.2585    Z=              0.2755  Tot=              3.1184
 Quadrupole moment (field-independent basis, Debye-Ang):
   XX=            -58.2538   YY=            -49.1501   ZZ=            -49.5227
   XY=             -2.2055   XZ=              0.6381   YZ=             -0.5906
 Traceless Quadrupole moment (field-independent basis, Debye-Ang):
   XX=             -5.9449   YY=              3.1588   ZZ=              2.7861
   XY=             -2.2055   XZ=              0.6381   YZ=             -0.5906
 Octapole moment (field-independent basis, Debye-Ang**2):
  XXX=            -96.7583  YYY=            -15.4592  ZZZ=              2.6163  XYY=            -20.9505
  XXY=             -8.6661  XXZ=              1.3008  XZZ=            -24.0070  YZZ=             -5.0143
  YYZ=              0.9481  XYZ=             -0.9777
 Hexadecapole moment (field-independent basis, Debye-Ang**3):
 XXXX=          -1657.9356 YYYY=           -264.1730 ZZZZ=           -167.0570 XXXY=            -34.7791
 XXXZ=              9.1712 YYYX=            -32.7983 YYYZ=              1.0864 ZZZX=              3.6649
 ZZZY=             -4.7639 XXYY=           -312.7577 XXZZ=           -303.1990 YYZZ=            -74.3011
 XXYZ=             -6.5380 YYXZ=              4.0753 ZZXY=            -11.2342
 N-N= 2.584834235183D+02 E-N=-1.649382279585D+03  KE= 3.784752166141D+02
                          Isotropic Fermi Contact Couplings
        Atom                 a.u.       MegaHertz       Gauss      10(-4) cm-1
     1  C(13)             -0.00022      -0.25020      -0.08928      -0.08346
     2  H(1)               0.00004       0.19366       0.06910       0.06460
     3  H(1)               0.00003       0.13281       0.04739       0.04430
     4  C(13)              0.00748       8.40438       2.99889       2.80340
     5  H(1)               0.00000       0.00177       0.00063       0.00059
     6  H(1)              -0.00001      -0.05170      -0.01845      -0.01724
     7  C(13)              0.01602      18.00454       6.42447       6.00567
     8  H(1)               0.00055       2.44755       0.87335       0.81641
     9  H(1)               0.00056       2.50981       0.89556       0.83718
    10  C(13)              0.01882      21.15263       7.54778       7.05576
    11  H(1)              -0.00074      -3.30306      -1.17862      -1.10178
    12  H(1)              -0.00075      -3.34935      -1.19513      -1.11722
    13  N(14)              0.60310     194.86290      69.53193      64.99927
    14  H(1)              -0.00046      -2.06478      -0.73677      -0.68874
    15  H(1)              -0.00053      -2.35539      -0.84046      -0.78567
    16  H(1)              -0.00055      -2.46964      -0.88123      -0.82378
    17  C(13)              0.00007       0.07651       0.02730       0.02552
    18  H(1)               0.00002       0.10282       0.03669       0.03430
    19  H(1)               0.00002       0.06758       0.02412       0.02254
    20  H(1)               0.00004       0.16678       0.05951       0.05563
 --------------------------------------------------------
       Center         ----  Spin Dipole Couplings  ----
                      3XX-RR        3YY-RR        3ZZ-RR
 --------------------------------------------------------
     1   Atom        0.001680     -0.000793     -0.000887
     2   Atom        0.001302     -0.000707     -0.000595
     3   Atom        0.000980     -0.000395     -0.000585
     4   Atom        0.003595      0.000461     -0.004056
     5   Atom        0.001052     -0.000941     -0.000111
     6   Atom        0.000830      0.000649     -0.001480
     7   Atom       -0.007549      0.008887     -0.001338
     8   Atom        0.001454     -0.000366     -0.001087
     9   Atom        0.001743     -0.004355      0.002612
    10   Atom       -0.012130      0.021288     -0.009158
    11   Atom       -0.000659      0.000562      0.000097
    12   Atom       -0.002218     -0.002729      0.004947
    13   Atom        0.017925      0.004105     -0.022030
    14   Atom        0.011030     -0.002998     -0.008032
    15   Atom       -0.015776     -0.014023      0.029799
    16   Atom       -0.013248      0.013863     -0.000615
    17   Atom        0.001363     -0.000697     -0.000665
    18   Atom        0.001626     -0.000701     -0.000925
    19   Atom        0.000881     -0.000430     -0.000451
    20   Atom        0.001109     -0.000652     -0.000458
 --------------------------------------------------------
                        XY            XZ            YZ
 --------------------------------------------------------
     1   Atom        0.000570      0.000033     -0.000014
     2   Atom        0.000474      0.000561      0.000107
     3   Atom        0.000470      0.000005     -0.000028
     4   Atom        0.007263     -0.003200     -0.002614
     5   Atom        0.001301     -0.001107     -0.000574
     6   Atom        0.001652     -0.000106      0.000283
     7   Atom       -0.003986      0.001616     -0.006872
     8   Atom        0.000954      0.000363      0.003897
     9   Atom        0.000689     -0.001101      0.000891
    10   Atom        0.019243     -0.009038     -0.015951
    11   Atom       -0.000238     -0.004659      0.003797
    12   Atom        0.003477      0.001774      0.001626
    13   Atom        0.036575     -0.012952     -0.010462
    14   Atom       -0.019482      0.012124     -0.006848
    15   Atom       -0.001626      0.004140     -0.002108
    16   Atom       -0.010321     -0.005599      0.019201
    17   Atom        0.000136     -0.000153     -0.000019
    18   Atom       -0.000488     -0.000041      0.000017
    19   Atom       -0.000087     -0.000005     -0.000001
    20   Atom       -0.000041     -0.000455      0.000044
 --------------------------------------------------------


 ---------------------------------------------------------------------------------
              Anisotropic Spin Dipole Couplings in Principal Axis System
 ---------------------------------------------------------------------------------

       Atom             a.u.   MegaHertz   Gauss  10(-4) cm-1        Axes

              Baa    -0.0009    -0.125    -0.044    -0.042 -0.1961  0.8714  0.4498
     1 C(13)  Bbb    -0.0009    -0.118    -0.042    -0.039  0.0868 -0.4415  0.8931
              Bcc     0.0018     0.242     0.086     0.081  0.9767  0.2141  0.0110
 
              Baa    -0.0008    -0.436    -0.156    -0.145 -0.2698  0.9351  0.2297
     2 H(1)   Bbb    -0.0007    -0.396    -0.141    -0.132 -0.1915 -0.2859  0.9389
              Bcc     0.0016     0.832     0.297     0.277  0.9437  0.2093  0.2562
 
              Baa    -0.0006    -0.319    -0.114    -0.107 -0.1258  0.4132  0.9019
     3 H(1)   Bbb    -0.0005    -0.281    -0.100    -0.094 -0.2673  0.8614 -0.4320
              Bcc     0.0011     0.601     0.214     0.200  0.9554  0.2954 -0.0021
 
              Baa    -0.0054    -0.725    -0.259    -0.242 -0.5972  0.7930  0.1201
     4 C(13)  Bbb    -0.0052    -0.700    -0.250    -0.233  0.2876  0.0719  0.9551
              Bcc     0.0106     1.425     0.509     0.475  0.7487  0.6050 -0.2710
 
              Baa    -0.0016    -0.845    -0.302    -0.282 -0.4341  0.9005  0.0246
     5 H(1)   Bbb    -0.0007    -0.399    -0.142    -0.133  0.4192  0.1778  0.8903
              Bcc     0.0023     1.244     0.444     0.415  0.7974  0.3968 -0.4547
 
              Baa    -0.0016    -0.852    -0.304    -0.284  0.2397 -0.2930  0.9256
     6 H(1)   Bbb    -0.0008    -0.428    -0.153    -0.143 -0.6467  0.6629  0.3773
              Bcc     0.0024     1.280     0.457     0.427  0.7241  0.6890  0.0306
 
              Baa    -0.0085    -1.136    -0.405    -0.379  0.9753  0.2208 -0.0083
     7 C(13)  Bbb    -0.0048    -0.639    -0.228    -0.213 -0.0891  0.4271  0.8998
              Bcc     0.0132     1.775     0.633     0.592 -0.2022  0.8768 -0.4362
 
              Baa    -0.0047    -2.488    -0.888    -0.830  0.0623 -0.6780  0.7324
     8 H(1)   Bbb     0.0011     0.563     0.201     0.188  0.9118 -0.2598 -0.3180
              Bcc     0.0036     1.925     0.687     0.642  0.4059  0.6876  0.6020
 
              Baa    -0.0046    -2.442    -0.871    -0.815 -0.1316  0.9811 -0.1417
     9 H(1)   Bbb     0.0012     0.639     0.228     0.213  0.8288  0.1874  0.5273
              Bcc     0.0034     1.803     0.643     0.601 -0.5439  0.0481  0.8378
 
              Baa    -0.0214    -2.866    -1.023    -0.956  0.9116 -0.3107  0.2692
    10 C(13)  Bbb    -0.0159    -2.134    -0.761    -0.712 -0.1129  0.4404  0.8907
              Bcc     0.0373     4.999     1.784     1.668  0.3953  0.8423 -0.3664
 
              Baa    -0.0060    -3.184    -1.136    -1.062  0.5986 -0.3863  0.7017
    11 H(1)   Bbb    -0.0002    -0.083    -0.030    -0.028  0.6246  0.7736 -0.1070
              Bcc     0.0061     3.267     1.166     1.090 -0.5015  0.5023  0.7044
 
              Baa    -0.0060    -3.180    -1.135    -1.061 -0.6811  0.7322  0.0016
    12 H(1)   Bbb    -0.0001    -0.068    -0.024    -0.023  0.6611  0.6159 -0.4284
              Bcc     0.0061     3.248     1.159     1.083  0.3147  0.2907  0.9036
 
              Baa    -0.0263    -1.014    -0.362    -0.338 -0.6549  0.6638 -0.3612
    13 N(14)  Bbb    -0.0257    -0.991    -0.354    -0.331 -0.0790  0.4152  0.9063
              Bcc     0.0520     2.005     0.715     0.669  0.7516  0.6221 -0.2195
 
              Baa    -0.0171    -9.128    -3.257    -3.045  0.6262  0.7236 -0.2905
    14 H(1)   Bbb    -0.0127    -6.773    -2.417    -2.259 -0.0946  0.4404  0.8928
              Bcc     0.0298    15.901     5.674     5.304  0.7739 -0.5315  0.3442
 
              Baa    -0.0169    -9.012    -3.216    -3.006  0.8860  0.4601 -0.0578
    15 H(1)   Bbb    -0.0134    -7.147    -2.550    -2.384 -0.4546  0.8864  0.0868
              Bcc     0.0303    16.159     5.766     5.390  0.0912 -0.0507  0.9945
 
              Baa    -0.0169    -9.007    -3.214    -3.004  0.8943  0.4109 -0.1772
    16 H(1)   Bbb    -0.0134    -7.148    -2.551    -2.384  0.3648 -0.4399  0.8206
              Bcc     0.0303    16.155     5.765     5.389 -0.2592  0.7985  0.5433
 
              Baa    -0.0007    -0.095    -0.034    -0.032 -0.0438  0.9630  0.2659
    17 C(13)  Bbb    -0.0007    -0.091    -0.032    -0.030  0.0899 -0.2612  0.9611
              Bcc     0.0014     0.186     0.066     0.062  0.9950  0.0659 -0.0751
 
              Baa    -0.0009    -0.494    -0.176    -0.165  0.0027 -0.0688  0.9976
    18 H(1)   Bbb    -0.0008    -0.426    -0.152    -0.142  0.1979  0.9779  0.0669
              Bcc     0.0017     0.920     0.328     0.307  0.9802 -0.1973 -0.0162
 
              Baa    -0.0005    -0.241    -0.086    -0.080  0.0072  0.0564  0.9984
    19 H(1)   Bbb    -0.0004    -0.232    -0.083    -0.078  0.0653  0.9962 -0.0567
              Bcc     0.0009     0.473     0.169     0.158  0.9978 -0.0657 -0.0035
 
              Baa    -0.0007    -0.355    -0.127    -0.118 -0.0672  0.9353 -0.3474
    20 H(1)   Bbb    -0.0006    -0.303    -0.108    -0.101  0.2531  0.3527  0.9008
              Bcc     0.0012     0.658     0.235     0.219  0.9651 -0.0274 -0.2604
 

 ---------------------------------------------------------------------------------

 1\1\GINC-N0297\FOpt\UM062X\6-311+G(d)\C5H14N1(2)\WAB665\08-Mar-2017\0\
 \# opt M062X/6-311+G* geom=connectivity\\Title Card Required\\0,2\C,-2
 .1375213185,-0.7783047297,0.0976232196\H,-1.9468969583,-1.8186950107,0
 .3826251473\H,-3.2244306943,-0.6545451119,0.1014261541\C,-1.5367383275
 ,0.1518348218,1.1526395928\H,-1.7924384281,1.1900860901,0.9088734366\H
 ,-1.9970357887,-0.0610039274,2.1238136249\C,-0.0173126605,0.0241034956
 ,1.2775414472\H,0.4722655284,0.3376089015,0.3511116332\H,0.2595005296,
 -1.0233430028,1.4402169405\C,0.4856238087,0.8778109604,2.4319744369\H,
 0.0615912611,0.5564783684,3.3845370347\H,0.2454829317,1.9322966107,2.2
 860568359\N,1.9757074963,0.8027809105,2.5885117666\H,2.3055871322,1.38
 51022403,3.3861287578\H,2.2962626355,-0.1700874611,2.7708673997\H,2.47
 1609551,1.1432647499,1.739770295\C,-1.6033246415,-0.5240884731,-1.3101
 754807\H,-0.542671491,-0.7705198423,-1.3942645097\H,-2.1357018769,-1.1
 270434918,-2.0481196213\H,-1.7235586892,0.5262639015,-1.5911581111\\Ve
 rsion=EM64L-G09RevA.02\State=2-A\HF=-253.5334843\S2=0.750735\S2-1=0.\S
 2A=0.75\RMSD=6.108e-09\RMSF=7.959e-06\Dipole=-1.1464718,-0.1729103,-0.
 4011747\Quadrupole=-2.6247824,1.9622813,0.6625011,-1.5601539,-3.115533
 4,-0.2177651\PG=C01 [X(C5H14N1)]\\@


 REALITY IS FOR PEOPLE WHO CAN'T FACE SCIENCE FICTION.
 Job cpu time:  0 days  1 hours 28 minutes 33.5 seconds.
 File lengths (MBytes):  RWF=    186 Int=      0 D2E=      0 Chk=      6 Scr=      4
 Normal termination of Gaussian 09 at Wed Mar  8 17:52:54 2017.
