 Entering Gaussian System, Link 0=g09
 Input=bmim-cl_real.com
 Output=bmim-cl_real.log
 Initial command:
 /Users/jpfaendt/Software/G09/g09/l1.exe /Users/jpfaendt/Software/G09/scratch/Gau-19370.inp -scrdir=/Users/jpfaendt/Software/G09/scratch/
 Entering Link 1 = /Users/jpfaendt/Software/G09/g09/l1.exe PID=     19371.
  
 Copyright (c) 1988,1990,1992,1993,1995,1998,2003,2009, Gaussian, Inc.
                  All Rights Reserved.
  
 This is part of the Gaussian(R) 09 program.  It is based on
 the Gaussian(R) 03 system (copyright 2003, Gaussian, Inc.),
 the Gaussian(R) 98 system (copyright 1998, Gaussian, Inc.),
 the Gaussian(R) 94 system (copyright 1995, Gaussian, Inc.),
 the Gaussian 92(TM) system (copyright 1992, Gaussian, Inc.),
 the Gaussian 90(TM) system (copyright 1990, Gaussian, Inc.),
 the Gaussian 88(TM) system (copyright 1988, Gaussian, Inc.),
 the Gaussian 86(TM) system (copyright 1986, Carnegie Mellon
 University), and the Gaussian 82(TM) system (copyright 1983,
 Carnegie Mellon University). Gaussian is a federally registered
 trademark of Gaussian, Inc.
  
 This software contains proprietary and confidential information,
 including trade secrets, belonging to Gaussian, Inc.
  
 This software is provided under written license and may be
 used, copied, transmitted, or stored only in accord with that
 written license.
  
 The following legend is applicable only to US Government
 contracts under FAR:
  
                    RESTRICTED RIGHTS LEGEND
  
 Use, reproduction and disclosure by the US Government is
 subject to restrictions as set forth in subparagraphs (a)
 and (c) of the Commercial Computer Software - Restricted
 Rights clause in FAR 52.227-19.
  
 Gaussian, Inc.
 340 Quinnipiac St., Bldg. 40, Wallingford CT 06492
  
  
 ---------------------------------------------------------------
 Warning -- This program may not be used in any manner that
 competes with the business of Gaussian, Inc. or will provide
 assistance to any competitor of Gaussian, Inc.  The licensee
 of this program is prohibited from giving any competitor of
 Gaussian, Inc. access to this program.  By using this program,
 the user acknowledges that Gaussian, Inc. is engaged in the
 business of creating and licensing software in the field of
 computational chemistry and represents and warrants to the
 licensee that it is not a competitor of Gaussian, Inc. and that
 it will not use this program in any manner prohibited above.
 ---------------------------------------------------------------
  

 Cite this work as:
 Gaussian 09, Revision A.02,
 M. J. Frisch, G. W. Trucks, H. B. Schlegel, G. E. Scuseria, 
 M. A. Robb, J. R. Cheeseman, G. Scalmani, V. Barone, B. Mennucci, 
 G. A. Petersson, H. Nakatsuji, M. Caricato, X. Li, H. P. Hratchian, 
 A. F. Izmaylov, J. Bloino, G. Zheng, J. L. Sonnenberg, M. Hada, 
 M. Ehara, K. Toyota, R. Fukuda, J. Hasegawa, M. Ishida, T. Nakajima, 
 Y. Honda, O. Kitao, H. Nakai, T. Vreven, J. A. Montgomery, Jr., 
 J. E. Peralta, F. Ogliaro, M. Bearpark, J. J. Heyd, E. Brothers, 
 K. N. Kudin, V. N. Staroverov, R. Kobayashi, J. Normand, 
 K. Raghavachari, A. Rendell, J. C. Burant, S. S. Iyengar, J. Tomasi, 
 M. Cossi, N. Rega, J. M. Millam, M. Klene, J. E. Knox, J. B. Cross, 
 V. Bakken, C. Adamo, J. Jaramillo, R. Gomperts, R. E. Stratmann, 
 O. Yazyev, A. J. Austin, R. Cammi, C. Pomelli, J. W. Ochterski, 
 R. L. Martin, K. Morokuma, V. G. Zakrzewski, G. A. Voth, 
 P. Salvador, J. J. Dannenberg, S. Dapprich, A. D. Daniels, 
 O. Farkas, J. B. Foresman, J. V. Ortiz, J. Cioslowski, 
 and D. J. Fox, Gaussian, Inc., Wallingford CT, 2009.
 
 ******************************************
 Gaussian 09:  IA32M-G09RevA.02 11-Jun-2009
                 2-Mar-2017 
 ******************************************
 %chk=bmim-cl_real.chk
 %nproc=2
 Will use up to    2 processors via shared memory.
 ---------
 # PM6 opt
 ---------
 1/14=-1,18=20,19=15,26=1,38=1/1,3;
 2/9=110,12=2,17=6,18=5,40=1/2;
 3/5=2,16=1,25=1,41=3900000,71=1/1,2,3;
 4/35=1/1;
 5/5=2,35=1,38=5/2;
 6/7=2,8=2,9=2,10=2,28=1/1;
 7//1,2,3,16;
 1/14=-1,18=20,19=15/3(2);
 2/9=110/2;
 99//99;
 2/9=110/2;
 3/5=2,16=1,25=1,41=3900000,71=1,135=20/1,2,3;
 4/5=5,16=3,35=1/1;
 5/5=2,35=1,38=5/2;
 7//1,2,3,16;
 1/14=-1,18=20,19=15/3(-5);
 2/9=110/2;
 6/7=2,8=2,9=2,10=2,19=2,28=1/1;
 99/9=1/99;
 -------------------
 Title Card Required
 -------------------
 Symbolic Z-matrix:
 Charge =  0 Multiplicity = 1
 C                    -11.60317   2.88719   21.64361 
 C                    -9.95129   4.45594   21.87105 
 C                    -11.87756   4.14258   20.89506 
 H                    -9.05257   4.92524   22.21304 
 H                    -12.42408   4.2721    19.98433 
 H                    -12.27632   2.17145   22.06727 
 C                    -9.52337   2.17592   22.78205 
 H                    -8.46438   2.32901   22.78064 
 H                    -9.9296    2.50172   23.71679 
 C                    -9.82589   0.67887   22.58475 
 H                    -10.88488   0.52578   22.58615 
 H                    -9.41966   0.35307   21.65001 
 C                    -9.18892  -0.12894   23.73074 
 H                    -8.12993   0.02414   23.72934 
 H                    -9.59515   0.19685   24.66548 
 C                    -9.49144  -1.62599   23.53344 
 H                    -9.08521  -1.95179   22.59871 
 H                    -9.04887  -2.18726   24.32969 
 H                    -10.55043  -1.77908   23.53485 
 C                    -11.44884   6.45828   22.00447 
 H                    -12.12675   6.86932   21.28586 
 H                    -11.91924   6.43363   22.9652 
 H                    -10.56941   7.06582   22.05341 
 N                    -10.13139   2.94701   21.68814 
 N                    -11.07946   5.0928    21.60456 
 Cl                   -13.8011   3.315     26.19235 
 

 GradGradGradGradGradGradGradGradGradGradGradGradGradGradGradGradGradGrad
 Berny optimization.
 Initialization pass.
                           ----------------------------
                           !    Initial Parameters    !
                           ! (Angstroms and Degrees)  !
 --------------------------                            --------------------------
 ! Name  Definition              Value          Derivative Info.                !
 --------------------------------------------------------------------------------
 ! R1    R(1,3)                  1.4872         estimate D2E/DX2                !
 ! R2    R(1,6)                  1.07           estimate D2E/DX2                !
 ! R3    R(1,24)                 1.4737         estimate D2E/DX2                !
 ! R4    R(1,26)                 5.07           estimate D2E/DX2                !
 ! R5    R(2,4)                  1.07           estimate D2E/DX2                !
 ! R6    R(2,24)                 1.5306         estimate D2E/DX2                !
 ! R7    R(2,25)                 1.3226         estimate D2E/DX2                !
 ! R8    R(3,5)                  1.07           estimate D2E/DX2                !
 ! R9    R(3,25)                 1.4294         estimate D2E/DX2                !
 ! R10   R(6,26)                 4.5441         estimate D2E/DX2                !
 ! R11   R(7,8)                  1.07           estimate D2E/DX2                !
 ! R12   R(7,9)                  1.07           estimate D2E/DX2                !
 ! R13   R(7,10)                 1.54           estimate D2E/DX2                !
 ! R14   R(7,24)                 1.47           estimate D2E/DX2                !
 ! R15   R(7,26)                 5.5881         estimate D2E/DX2                !
 ! R16   R(9,26)                 4.6667         estimate D2E/DX2                !
 ! R17   R(10,11)                1.07           estimate D2E/DX2                !
 ! R18   R(10,12)                1.07           estimate D2E/DX2                !
 ! R19   R(10,13)                1.54           estimate D2E/DX2                !
 ! R20   R(11,26)                5.4119         estimate D2E/DX2                !
 ! R21   R(13,14)                1.07           estimate D2E/DX2                !
 ! R22   R(13,15)                1.07           estimate D2E/DX2                !
 ! R23   R(13,16)                1.54           estimate D2E/DX2                !
 ! R24   R(15,26)                5.4538         estimate D2E/DX2                !
 ! R25   R(16,17)                1.07           estimate D2E/DX2                !
 ! R26   R(16,18)                1.07           estimate D2E/DX2                !
 ! R27   R(16,19)                1.07           estimate D2E/DX2                !
 ! R28   R(20,21)                1.07           estimate D2E/DX2                !
 ! R29   R(20,22)                1.07           estimate D2E/DX2                !
 ! R30   R(20,23)                1.07           estimate D2E/DX2                !
 ! R31   R(20,25)                1.47           estimate D2E/DX2                !
 ! R32   R(22,26)                4.8664         estimate D2E/DX2                !
 ! A1    A(3,1,6)              130.3829         estimate D2E/DX2                !
 ! A2    A(3,1,24)              99.5093         estimate D2E/DX2                !
 ! A3    A(3,1,26)             107.4801         estimate D2E/DX2                !
 ! A4    A(6,1,24)             130.0531         estimate D2E/DX2                !
 ! A5    A(24,1,26)            113.7299         estimate D2E/DX2                !
 ! A6    A(4,2,24)             124.7087         estimate D2E/DX2                !
 ! A7    A(4,2,25)             124.7254         estimate D2E/DX2                !
 ! A8    A(24,2,25)            110.5025         estimate D2E/DX2                !
 ! A9    A(1,3,5)              128.6707         estimate D2E/DX2                !
 ! A10   A(1,3,25)             102.0233         estimate D2E/DX2                !
 ! A11   A(5,3,25)             128.8426         estimate D2E/DX2                !
 ! A12   A(8,7,9)              109.4712         estimate D2E/DX2                !
 ! A13   A(8,7,10)             109.4712         estimate D2E/DX2                !
 ! A14   A(8,7,24)             109.4712         estimate D2E/DX2                !
 ! A15   A(8,7,26)             136.8254         estimate D2E/DX2                !
 ! A16   A(9,7,10)             109.4712         estimate D2E/DX2                !
 ! A17   A(9,7,24)             109.4712         estimate D2E/DX2                !
 ! A18   A(10,7,24)            109.4712         estimate D2E/DX2                !
 ! A19   A(10,7,26)             97.2365         estimate D2E/DX2                !
 ! A20   A(24,7,26)             91.753          estimate D2E/DX2                !
 ! A21   A(7,10,11)            109.4712         estimate D2E/DX2                !
 ! A22   A(7,10,12)            109.4712         estimate D2E/DX2                !
 ! A23   A(7,10,13)            109.4712         estimate D2E/DX2                !
 ! A24   A(11,10,12)           109.4712         estimate D2E/DX2                !
 ! A25   A(11,10,13)           109.4712         estimate D2E/DX2                !
 ! A26   A(12,10,13)           109.4712         estimate D2E/DX2                !
 ! A27   A(10,11,26)           117.416          estimate D2E/DX2                !
 ! A28   A(10,13,14)           109.4712         estimate D2E/DX2                !
 ! A29   A(10,13,15)           109.4712         estimate D2E/DX2                !
 ! A30   A(10,13,16)           109.4712         estimate D2E/DX2                !
 ! A31   A(14,13,15)           109.4712         estimate D2E/DX2                !
 ! A32   A(14,13,16)           109.4712         estimate D2E/DX2                !
 ! A33   A(15,13,16)           109.4712         estimate D2E/DX2                !
 ! A34   A(13,15,26)           135.3524         estimate D2E/DX2                !
 ! A35   A(13,16,17)           109.4712         estimate D2E/DX2                !
 ! A36   A(13,16,18)           109.4712         estimate D2E/DX2                !
 ! A37   A(13,16,19)           109.4712         estimate D2E/DX2                !
 ! A38   A(17,16,18)           109.4712         estimate D2E/DX2                !
 ! A39   A(17,16,19)           109.4712         estimate D2E/DX2                !
 ! A40   A(18,16,19)           109.4712         estimate D2E/DX2                !
 ! A41   A(21,20,22)           109.4712         estimate D2E/DX2                !
 ! A42   A(21,20,23)           109.4712         estimate D2E/DX2                !
 ! A43   A(21,20,25)           109.4712         estimate D2E/DX2                !
 ! A44   A(22,20,23)           109.4712         estimate D2E/DX2                !
 ! A45   A(22,20,25)           109.4712         estimate D2E/DX2                !
 ! A46   A(23,20,25)           109.4712         estimate D2E/DX2                !
 ! A47   A(20,22,26)           141.2791         estimate D2E/DX2                !
 ! A48   A(1,24,2)              99.2736         estimate D2E/DX2                !
 ! A49   A(1,24,7)             114.4737         estimate D2E/DX2                !
 ! A50   A(2,24,7)             112.3046         estimate D2E/DX2                !
 ! A51   A(2,25,3)             104.8423         estimate D2E/DX2                !
 ! A52   A(2,25,20)            127.3583         estimate D2E/DX2                !
 ! A53   A(3,25,20)            127.7501         estimate D2E/DX2                !
 ! A54   A(1,26,7)              26.2856         estimate D2E/DX2                !
 ! A55   A(1,26,9)              31.7578         estimate D2E/DX2                !
 ! A56   A(1,26,11)             28.9638         estimate D2E/DX2                !
 ! A57   A(1,26,15)             50.6728         estimate D2E/DX2                !
 ! A58   A(1,26,22)             44.884          estimate D2E/DX2                !
 ! A59   A(6,26,7)              30.4388         estimate D2E/DX2                !
 ! A60   A(6,26,9)              36.5071         estimate D2E/DX2                !
 ! A61   A(6,26,11)             23.7358         estimate D2E/DX2                !
 ! A62   A(6,26,15)             48.9436         estimate D2E/DX2                !
 ! A63   A(6,26,22)             55.2161         estimate D2E/DX2                !
 ! A64   A(7,26,11)             22.4502         estimate D2E/DX2                !
 ! A65   A(7,26,15)             28.6272         estimate D2E/DX2                !
 ! A66   A(7,26,22)             55.2426         estimate D2E/DX2                !
 ! A67   A(9,26,11)             27.086          estimate D2E/DX2                !
 ! A68   A(9,26,15)             27.3859         estimate D2E/DX2                !
 ! A69   A(9,26,22)             55.8814         estimate D2E/DX2                !
 ! A70   A(11,26,15)            26.2626         estimate D2E/DX2                !
 ! A71   A(11,26,22)            71.3384         estimate D2E/DX2                !
 ! A72   A(15,26,22)            83.2531         estimate D2E/DX2                !
 ! D1    D(6,1,3,5)            -58.789          estimate D2E/DX2                !
 ! D2    D(6,1,3,25)           128.5631         estimate D2E/DX2                !
 ! D3    D(24,1,3,5)           123.7399         estimate D2E/DX2                !
 ! D4    D(24,1,3,25)          -48.908          estimate D2E/DX2                !
 ! D5    D(26,1,3,5)          -117.5395         estimate D2E/DX2                !
 ! D6    D(26,1,3,25)           69.8126         estimate D2E/DX2                !
 ! D7    D(3,1,24,2)            37.0391         estimate D2E/DX2                !
 ! D8    D(3,1,24,7)           156.8304         estimate D2E/DX2                !
 ! D9    D(6,1,24,2)          -140.4443         estimate D2E/DX2                !
 ! D10   D(6,1,24,7)           -20.653          estimate D2E/DX2                !
 ! D11   D(26,1,24,2)          -76.935          estimate D2E/DX2                !
 ! D12   D(26,1,24,7)           42.8563         estimate D2E/DX2                !
 ! D13   D(3,1,26,7)          -130.7011         estimate D2E/DX2                !
 ! D14   D(3,1,26,9)          -125.0868         estimate D2E/DX2                !
 ! D15   D(3,1,26,11)          179.9679         estimate D2E/DX2                !
 ! D16   D(3,1,26,15)         -156.0648         estimate D2E/DX2                !
 ! D17   D(3,1,26,22)          -28.6644         estimate D2E/DX2                !
 ! D18   D(24,1,26,7)          -21.5756         estimate D2E/DX2                !
 ! D19   D(24,1,26,9)          -15.9614         estimate D2E/DX2                !
 ! D20   D(24,1,26,11)         -70.9067         estimate D2E/DX2                !
 ! D21   D(24,1,26,15)         -46.9393         estimate D2E/DX2                !
 ! D22   D(24,1,26,22)          80.461          estimate D2E/DX2                !
 ! D23   D(4,2,24,1)           162.6875         estimate D2E/DX2                !
 ! D24   D(4,2,24,7)            41.3088         estimate D2E/DX2                !
 ! D25   D(25,2,24,1)          -14.5281         estimate D2E/DX2                !
 ! D26   D(25,2,24,7)         -135.9067         estimate D2E/DX2                !
 ! D27   D(4,2,25,3)           166.7252         estimate D2E/DX2                !
 ! D28   D(4,2,25,20)          -15.6862         estimate D2E/DX2                !
 ! D29   D(24,2,25,3)          -16.0598         estimate D2E/DX2                !
 ! D30   D(24,2,25,20)         161.5288         estimate D2E/DX2                !
 ! D31   D(1,3,25,2)            40.527          estimate D2E/DX2                !
 ! D32   D(1,3,25,20)         -137.0489         estimate D2E/DX2                !
 ! D33   D(5,3,25,2)          -132.1031         estimate D2E/DX2                !
 ! D34   D(5,3,25,20)           50.321          estimate D2E/DX2                !
 ! D35   D(8,7,10,11)          180.0            estimate D2E/DX2                !
 ! D36   D(8,7,10,12)          -60.0            estimate D2E/DX2                !
 ! D37   D(8,7,10,13)           60.0            estimate D2E/DX2                !
 ! D38   D(9,7,10,11)           60.0            estimate D2E/DX2                !
 ! D39   D(9,7,10,12)          180.0            estimate D2E/DX2                !
 ! D40   D(9,7,10,13)          -60.0            estimate D2E/DX2                !
 ! D41   D(24,7,10,11)         -60.0            estimate D2E/DX2                !
 ! D42   D(24,7,10,12)          60.0            estimate D2E/DX2                !
 ! D43   D(24,7,10,13)         180.0            estimate D2E/DX2                !
 ! D44   D(26,7,10,11)          34.4506         estimate D2E/DX2                !
 ! D45   D(26,7,10,12)         154.4506         estimate D2E/DX2                !
 ! D46   D(26,7,10,13)         -85.5494         estimate D2E/DX2                !
 ! D47   D(8,7,24,1)          -176.108          estimate D2E/DX2                !
 ! D48   D(8,7,24,2)           -63.892          estimate D2E/DX2                !
 ! D49   D(9,7,24,1)           -56.108          estimate D2E/DX2                !
 ! D50   D(9,7,24,2)            56.108          estimate D2E/DX2                !
 ! D51   D(10,7,24,1)           63.892          estimate D2E/DX2                !
 ! D52   D(10,7,24,2)          176.108          estimate D2E/DX2                !
 ! D53   D(26,7,24,1)          -34.4157         estimate D2E/DX2                !
 ! D54   D(26,7,24,2)           77.8002         estimate D2E/DX2                !
 ! D55   D(8,7,26,1)           141.0664         estimate D2E/DX2                !
 ! D56   D(8,7,26,6)           162.9862         estimate D2E/DX2                !
 ! D57   D(8,7,26,11)         -144.8158         estimate D2E/DX2                !
 ! D58   D(8,7,26,15)          -82.6911         estimate D2E/DX2                !
 ! D59   D(8,7,26,22)           83.9214         estimate D2E/DX2                !
 ! D60   D(10,7,26,1)          -90.1471         estimate D2E/DX2                !
 ! D61   D(10,7,26,6)          -68.2274         estimate D2E/DX2                !
 ! D62   D(10,7,26,11)         -16.0293         estimate D2E/DX2                !
 ! D63   D(10,7,26,15)          46.0954         estimate D2E/DX2                !
 ! D64   D(10,7,26,22)        -147.2922         estimate D2E/DX2                !
 ! D65   D(24,7,26,1)           19.733          estimate D2E/DX2                !
 ! D66   D(24,7,26,6)           41.6527         estimate D2E/DX2                !
 ! D67   D(24,7,26,11)          93.8508         estimate D2E/DX2                !
 ! D68   D(24,7,26,15)         155.9755         estimate D2E/DX2                !
 ! D69   D(24,7,26,22)         -37.412          estimate D2E/DX2                !
 ! D70   D(7,10,11,26)         -40.751          estimate D2E/DX2                !
 ! D71   D(12,10,11,26)       -160.751          estimate D2E/DX2                !
 ! D72   D(13,10,11,26)         79.249          estimate D2E/DX2                !
 ! D73   D(7,10,13,14)         -60.0            estimate D2E/DX2                !
 ! D74   D(7,10,13,15)          60.0            estimate D2E/DX2                !
 ! D75   D(7,10,13,16)         180.0            estimate D2E/DX2                !
 ! D76   D(11,10,13,14)       -180.0            estimate D2E/DX2                !
 ! D77   D(11,10,13,15)        -60.0            estimate D2E/DX2                !
 ! D78   D(11,10,13,16)         60.0            estimate D2E/DX2                !
 ! D79   D(12,10,13,14)         60.0            estimate D2E/DX2                !
 ! D80   D(12,10,13,15)        180.0            estimate D2E/DX2                !
 ! D81   D(12,10,13,16)        -60.0            estimate D2E/DX2                !
 ! D82   D(10,11,26,1)          87.9595         estimate D2E/DX2                !
 ! D83   D(10,11,26,6)         110.3421         estimate D2E/DX2                !
 ! D84   D(10,11,26,7)          26.3681         estimate D2E/DX2                !
 ! D85   D(10,11,26,9)          16.8293         estimate D2E/DX2                !
 ! D86   D(10,11,26,15)        -46.7946         estimate D2E/DX2                !
 ! D87   D(10,11,26,22)         67.0487         estimate D2E/DX2                !
 ! D88   D(10,13,15,26)         12.1567         estimate D2E/DX2                !
 ! D89   D(14,13,15,26)        132.1567         estimate D2E/DX2                !
 ! D90   D(16,13,15,26)       -107.8433         estimate D2E/DX2                !
 ! D91   D(10,13,16,17)         60.0            estimate D2E/DX2                !
 ! D92   D(10,13,16,18)        180.0            estimate D2E/DX2                !
 ! D93   D(10,13,16,19)        -60.0            estimate D2E/DX2                !
 ! D94   D(14,13,16,17)        -60.0            estimate D2E/DX2                !
 ! D95   D(14,13,16,18)         60.0            estimate D2E/DX2                !
 ! D96   D(14,13,16,19)        180.0            estimate D2E/DX2                !
 ! D97   D(15,13,16,17)       -180.0            estimate D2E/DX2                !
 ! D98   D(15,13,16,18)        -60.0            estimate D2E/DX2                !
 ! D99   D(15,13,16,19)         60.0            estimate D2E/DX2                !
 ! D100  D(13,15,26,1)         -15.757          estimate D2E/DX2                !
 ! D101  D(13,15,26,6)          -1.3316         estimate D2E/DX2                !
 ! D102  D(13,15,26,7)         -39.0816         estimate D2E/DX2                !
 ! D103  D(13,15,26,9)         -51.8396         estimate D2E/DX2                !
 ! D104  D(13,15,26,11)         10.6384         estimate D2E/DX2                !
 ! D105  D(13,15,26,22)        -50.1249         estimate D2E/DX2                !
 ! D106  D(21,20,22,26)        108.4329         estimate D2E/DX2                !
 ! D107  D(23,20,22,26)       -131.5671         estimate D2E/DX2                !
 ! D108  D(25,20,22,26)        -11.5671         estimate D2E/DX2                !
 ! D109  D(21,20,25,2)         151.4742         estimate D2E/DX2                !
 ! D110  D(21,20,25,3)         -31.4742         estimate D2E/DX2                !
 ! D111  D(22,20,25,2)         -88.5258         estimate D2E/DX2                !
 ! D112  D(22,20,25,3)          88.5258         estimate D2E/DX2                !
 ! D113  D(23,20,25,2)          31.4742         estimate D2E/DX2                !
 ! D114  D(23,20,25,3)        -151.4742         estimate D2E/DX2                !
 ! D115  D(20,22,26,1)           0.3571         estimate D2E/DX2                !
 ! D116  D(20,22,26,6)          -5.1034         estimate D2E/DX2                !
 ! D117  D(20,22,26,7)          32.1716         estimate D2E/DX2                !
 ! D118  D(20,22,26,9)          39.5378         estimate D2E/DX2                !
 ! D119  D(20,22,26,11)         14.5346         estimate D2E/DX2                !
 ! D120  D(20,22,26,15)         38.5852         estimate D2E/DX2                !
 --------------------------------------------------------------------------------
 Trust Radius=3.00D-01 FncErr=1.00D-07 GrdErr=1.00D-07
 Number of steps in this run= 156 maximum allowed number of steps= 156.
 GradGradGradGradGradGradGradGradGradGradGradGradGradGradGradGradGradGrad

                          Input orientation:                          
 ---------------------------------------------------------------------
 Center     Atomic      Atomic             Coordinates (Angstroms)
 Number     Number       Type             X           Y           Z
 ---------------------------------------------------------------------
      1          6           0      -11.603169    2.887185   21.643613
      2          6           0       -9.951289    4.455943   21.871048
      3          6           0      -11.877556    4.142579   20.895064
      4          1           0       -9.052565    4.925236   22.213043
      5          1           0      -12.424077    4.272097   19.984328
      6          1           0      -12.276318    2.171447   22.067274
      7          6           0       -9.523373    2.175919   22.782048
      8          1           0       -8.464382    2.329006   22.780642
      9          1           0       -9.929603    2.501716   23.716785
     10          6           0       -9.825892    0.678870   22.584747
     11          1           0      -10.884884    0.525783   22.586154
     12          1           0       -9.419662    0.353073   21.650010
     13          6           0       -9.188924   -0.128943   23.730744
     14          1           0       -8.129932    0.024144   23.729337
     15          1           0       -9.595153    0.196854   24.665481
     16          6           0       -9.491443   -1.625992   23.533442
     17          1           0       -9.085213   -1.951789   22.598705
     18          1           0       -9.048874   -2.187264   24.329687
     19          1           0      -10.550434   -1.779079   23.534849
     20          6           0      -11.448843    6.458282   22.004466
     21          1           0      -12.126752    6.869317   21.285864
     22          1           0      -11.919241    6.433631   22.965204
     23          1           0      -10.569408    7.065817   22.053415
     24          7           0      -10.131388    2.947013   21.688142
     25          7           0      -11.079456    5.092803   21.604563
     26         17           0      -13.801099    3.314997   26.192346
 ---------------------------------------------------------------------
                    Distance matrix (angstroms):
                    1          2          3          4          5
     1  C    0.000000
     2  C    2.289418   0.000000
     3  C    1.487154   2.182028   0.000000
     4  H    3.314133   1.070000   3.214062   0.000000
     5  H    2.311947   3.115797   1.070000   4.094001   0.000000
     6  H    1.070000   3.265454   2.327756   4.242309   2.961964
     7  C    2.475376   2.492297   3.601478   2.846783   4.542608
     8  H    3.384728   2.749930   4.300490   2.721864   5.222467
     9  H    2.692110   2.688163   3.801193   2.983938   4.825753
    10  C    2.986821   3.845955   4.365963   4.332184   5.140430
    11  H    2.642071   4.102332   4.114170   4.780354   4.813884
    12  H    3.345066   4.143070   4.579470   4.621303   5.211502
    13  C    4.391096   5.006081   5.789277   5.278895   6.623519
    14  H    4.960910   5.139204   6.248144   5.212591   7.107030
    15  H    4.516824   5.106420   5.915585   5.354106   6.820822
    16  C    5.329128   6.321783   6.777240   6.697361   7.482246
    17  H    5.537867   6.506812   6.916711   6.887908   7.531251
    18  H    6.284064   7.140830   7.737247   7.420772   8.485134
    19  H    5.143835   6.480949   6.617836   6.995614   7.261781
    20  C    3.592598   2.503962   2.603276   2.852346   3.132322
    21  H    4.032307   3.301432   2.765849   3.753630   2.920265
    22  H    3.797865   2.996875   3.088063   3.325481   3.716545
    23  H    4.324068   2.688266   3.405635   2.628380   3.940277
    24  N    1.473669   1.530608   2.259968   2.313600   3.148849
    25  N    2.267279   1.322636   1.429433   2.122878   2.259806
    26  Cl   5.070000   5.898849   5.696149   6.401274   6.430531
                    6          7          8          9         10
     6  H    0.000000
     7  C    2.844227   0.000000
     8  H    3.881311   1.070000   0.000000
     9  H    2.887393   1.070000   1.747303   0.000000
    10  C    2.915502   1.540000   2.148263   2.148263   0.000000
    11  H    2.216649   2.148263   3.024610   2.468846   1.070000
    12  H    3.411902   2.148263   2.468846   3.024610   1.070000
    13  C    4.194154   2.514809   2.732978   2.732978   1.540000
    14  H    4.956398   2.732978   2.514809   3.062243   2.148263
    15  H    4.223546   2.732978   3.062243   2.514809   2.148263
    16  C    4.932111   3.875582   4.154945   4.154945   2.514809
    17  H    5.240863   4.154945   4.329403   4.668704   2.732978
    18  H    5.876502   4.653783   4.810184   4.810184   3.444314
    19  H    4.554020   4.154945   4.668704   4.329403   2.732978
    20  C    4.366419   4.759275   5.153676   4.571055   6.030945
    21  H    4.764762   5.571727   6.021773   5.460109   6.730727
    22  H    4.370354   4.888951   5.368246   4.470289   6.135481
    23  H    5.183493   5.053336   5.234251   4.899712   6.451994
    24  N    2.312135   1.470000   2.086720   2.086720   2.457987
    25  N    3.190753   3.509428   3.982506   3.535163   4.692013
    26  Cl   4.544105   5.588075   6.410340   4.666724   5.980486
                   11         12         13         14         15
    11  H    0.000000
    12  H    1.747303   0.000000
    13  C    2.148263   2.148263   0.000000
    14  H    3.024610   2.468846   1.070000   0.000000
    15  H    2.468846   3.024610   1.070000   1.747303   0.000000
    16  C    2.732978   2.732978   1.540000   2.148263   2.148263
    17  H    3.062243   2.514809   2.148263   2.468846   3.024610
    18  H    3.710993   3.710993   2.148263   2.468846   2.468846
    19  H    2.514809   3.062243   2.148263   3.024610   2.468846
    20  C    5.987566   6.443352   7.174873   7.442343   7.051428
    21  H    6.593437   7.065577   7.973953   8.294669   7.896364
    22  H    6.009679   6.704536   7.148990   7.484937   6.869476
    23  H    6.569276   6.822433   7.515567   7.638385   7.413145
    24  N    2.690081   2.690081   3.810770   4.088455   4.088455
    25  N    4.675367   5.022153   5.946545   6.237440   5.961769
    26  Cl   5.411899   6.971571   6.260381   7.004160   5.453816
                   16         17         18         19         20
    16  C    0.000000
    17  H    1.070000   0.000000
    18  H    1.070000   1.747303   0.000000
    19  H    1.070000   1.747303   1.747303   0.000000
    20  C    8.457225   8.756092   9.268871   8.426347   0.000000
    21  H    9.174243   9.422655  10.037921   9.073999   1.070000
    22  H    8.436504   8.858967   9.188071   8.345461   1.070000
    23  H    8.882569   9.155184   9.649506   8.968121   1.070000
    24  N    4.972628   5.091352   5.874555   5.091352   3.763609
    25  N    7.168303   7.388613   8.034236   7.157418   1.470000
    26  Cl   7.075046   7.930502   7.505200   6.601418   5.740357
                   21         22         23         24         25
    21  H    0.000000
    22  H    1.747303   0.000000
    23  H    1.747303   1.747303   0.000000
    24  N    4.419024   4.121141   4.158105   0.000000
    25  N    2.086720   2.086720   2.086720   2.347389   0.000000
    26  Cl   6.285714   4.866387   6.453157   5.821516   5.622784
                   26
    26  Cl   0.000000
 Stoichiometry    C8H15ClN2
 Framework group  C1[X(C8H15ClN2)]
 Deg. of freedom    72
 Full point group                 C1      NOp   1
 Largest Abelian subgroup         C1      NOp   1
 Largest concise Abelian subgroup C1      NOp   1
                         Standard orientation:                         
 ---------------------------------------------------------------------
 Center     Atomic      Atomic             Coordinates (Angstroms)
 Number     Number       Type             X           Y           Z
 ---------------------------------------------------------------------
      1          6           0       -0.512845   -0.789736    1.164728
      2          6           0       -1.241562   -1.780232   -0.766418
      3          6           0       -1.843198   -1.439819    1.303220
      4          1           0       -1.266139   -2.081725   -1.792770
      5          1           0       -2.279459   -1.892006    2.169305
      6          1           0       -0.091651    0.045039    1.684965
      7          6           0        1.098364   -0.924035   -0.709694
      8          1           0        1.389400   -1.544886   -1.531120
      9          1           0        0.736950    0.012219   -1.080787
     10          6           0        2.313264   -0.679371    0.204504
     11          1           0        2.022228   -0.058519    1.025931
     12          1           0        2.674677   -1.615624    0.575597
     13          6           0        3.426872    0.019235   -0.597634
     14          1           0        3.717908   -0.601617   -1.419060
     15          1           0        3.065459    0.955488   -0.968727
     16          6           0        4.641772    0.263899    0.316564
     17          1           0        5.003186   -0.672355    0.687657
     18          1           0        5.415513    0.749294   -0.240765
     19          1           0        4.350736    0.884750    1.137991
     20          6           0       -3.652982   -1.143362   -0.544439
     21          1           0       -4.377708   -1.409793    0.196295
     22          1           0       -3.719628   -0.094974   -0.747765
     23          1           0       -3.841988   -1.693561   -1.442469
     24          7           0        0.035374   -1.590886    0.055983
     25          7           0       -2.306108   -1.461757   -0.049005
     26         17           0       -1.310733    4.072193   -0.031065
 ---------------------------------------------------------------------
 Rotational constants (GHZ):      0.5956160      0.4657493      0.2858008
 Standard basis: VSTO-6G (5D, 7F)
 There are    64 symmetry adapted basis functions of A   symmetry.
 Integral buffers will be    262144 words long.
 Regular integral format.
 Two-electron integral symmetry is turned off.
    64 basis functions,   390 primitive gaussians,    65 cartesian basis functions
    32 alpha electrons       32 beta electrons
       nuclear repulsion energy       359.1184273809 Hartrees.
 Do NDO integrals.
 One-electron integrals computed using PRISM.
 NBasis=    64 RedAO= F  NBF=    64
 NBsUse=    64 1.00D-04 NBFU=    64
 Nonelectrostatic core Hamiltonian diagonalized for initial guess.
 Initial guess orbital symmetries:
       Occupied  (A) (A) (A) (A) (A) (A) (A) (A) (A) (A) (A) (A)
                 (A) (A) (A) (A) (A) (A) (A) (A) (A) (A) (A) (A)
                 (A) (A) (A) (A) (A) (A) (A) (A)
       Virtual   (A) (A) (A) (A) (A) (A) (A) (A) (A) (A) (A) (A)
                 (A) (A) (A) (A) (A) (A) (A) (A) (A) (A) (A) (A)
                 (A) (A) (A) (A) (A) (A) (A) (A)
 The electronic state of the initial guess is 1-A.
 Requested convergence on RMS density matrix=1.00D-08 within 128 cycles.
 Requested convergence on MAX density matrix=1.00D-06.
 Requested convergence on             energy=1.00D-06.
 No special actions if energy rises.
 Overlap will be assumed to be unity.
 Keep J ints in memory in canonical form, NReq=919554.
 SCF Done:  E(RPM6) =  0.170506409850     A.U. after   21 cycles
             Convg  =    0.4988D-08             -V/T =  1.0015

 **********************************************************************

            Population analysis using the SCF density.

 **********************************************************************

 Orbital symmetries:
       Occupied  (A) (A) (A) (A) (A) (A) (A) (A) (A) (A) (A) (A)
                 (A) (A) (A) (A) (A) (A) (A) (A) (A) (A) (A) (A)
                 (A) (A) (A) (A) (A) (A) (A) (A)
       Virtual   (A) (A) (A) (A) (A) (A) (A) (A) (A) (A) (A) (A)
                 (A) (A) (A) (A) (A) (A) (A) (A) (A) (A) (A) (A)
                 (A) (A) (A) (A) (A) (A) (A) (A)
 The electronic state is 1-A.
 Alpha  occ. eigenvalues --   -1.35682  -1.22751  -1.11565  -1.06304  -1.02214
 Alpha  occ. eigenvalues --   -0.97618  -0.89592  -0.84643  -0.84198  -0.83307
 Alpha  occ. eigenvalues --   -0.79592  -0.74915  -0.71431  -0.68120  -0.67045
 Alpha  occ. eigenvalues --   -0.66032  -0.63973  -0.60997  -0.60296  -0.59174
 Alpha  occ. eigenvalues --   -0.56986  -0.54848  -0.53843  -0.51005  -0.48318
 Alpha  occ. eigenvalues --   -0.47439  -0.47027  -0.46144  -0.42198  -0.23760
 Alpha  occ. eigenvalues --   -0.23659  -0.23643
 Alpha virt. eigenvalues --   -0.11524  -0.09944  -0.05655  -0.02398   0.02396
 Alpha virt. eigenvalues --    0.04115   0.05332   0.06818   0.07258   0.08344
 Alpha virt. eigenvalues --    0.09733   0.10755   0.11287   0.11428   0.13058
 Alpha virt. eigenvalues --    0.13364   0.13505   0.13924   0.14193   0.16086
 Alpha virt. eigenvalues --    0.17332   0.19359   0.19821   0.20438   0.20941
 Alpha virt. eigenvalues --    0.21927   0.24044   3.87143   3.87200   3.87229
 Alpha virt. eigenvalues --    3.87427   3.87428
          Condensed to atoms (all electrons):
              1          2          3          4          5          6
     1  C    3.913218   0.000000   0.000000   0.000000   0.000000   0.000000
     2  C    0.000000   4.017989   0.000000   0.000000   0.000000   0.000000
     3  C    0.000000   0.000000   4.269737   0.000000   0.000000   0.000000
     4  H    0.000000   0.000000   0.000000   0.781577   0.000000   0.000000
     5  H    0.000000   0.000000   0.000000   0.000000   0.772497   0.000000
     6  H    0.000000   0.000000   0.000000   0.000000   0.000000   0.773708
     7  C    0.000000   0.000000   0.000000   0.000000   0.000000   0.000000
     8  H    0.000000   0.000000   0.000000   0.000000   0.000000   0.000000
     9  H    0.000000   0.000000   0.000000   0.000000   0.000000   0.000000
    10  C    0.000000   0.000000   0.000000   0.000000   0.000000   0.000000
    11  H    0.000000   0.000000   0.000000   0.000000   0.000000   0.000000
    12  H    0.000000   0.000000   0.000000   0.000000   0.000000   0.000000
    13  C    0.000000   0.000000   0.000000   0.000000   0.000000   0.000000
    14  H    0.000000   0.000000   0.000000   0.000000   0.000000   0.000000
    15  H    0.000000   0.000000   0.000000   0.000000   0.000000   0.000000
    16  C    0.000000   0.000000   0.000000   0.000000   0.000000   0.000000
    17  H    0.000000   0.000000   0.000000   0.000000   0.000000   0.000000
    18  H    0.000000   0.000000   0.000000   0.000000   0.000000   0.000000
    19  H    0.000000   0.000000   0.000000   0.000000   0.000000   0.000000
    20  C    0.000000   0.000000   0.000000   0.000000   0.000000   0.000000
    21  H    0.000000   0.000000   0.000000   0.000000   0.000000   0.000000
    22  H    0.000000   0.000000   0.000000   0.000000   0.000000   0.000000
    23  H    0.000000   0.000000   0.000000   0.000000   0.000000   0.000000
    24  N    0.000000   0.000000   0.000000   0.000000   0.000000   0.000000
    25  N    0.000000   0.000000   0.000000   0.000000   0.000000   0.000000
    26  Cl   0.000000   0.000000   0.000000   0.000000   0.000000   0.000000
              7          8          9         10         11         12
     1  C    0.000000   0.000000   0.000000   0.000000   0.000000   0.000000
     2  C    0.000000   0.000000   0.000000   0.000000   0.000000   0.000000
     3  C    0.000000   0.000000   0.000000   0.000000   0.000000   0.000000
     4  H    0.000000   0.000000   0.000000   0.000000   0.000000   0.000000
     5  H    0.000000   0.000000   0.000000   0.000000   0.000000   0.000000
     6  H    0.000000   0.000000   0.000000   0.000000   0.000000   0.000000
     7  C    4.184530   0.000000   0.000000   0.000000   0.000000   0.000000
     8  H    0.000000   0.835895   0.000000   0.000000   0.000000   0.000000
     9  H    0.000000   0.000000   0.826927   0.000000   0.000000   0.000000
    10  C    0.000000   0.000000   0.000000   4.266759   0.000000   0.000000
    11  H    0.000000   0.000000   0.000000   0.000000   0.850710   0.000000
    12  H    0.000000   0.000000   0.000000   0.000000   0.000000   0.849891
    13  C    0.000000   0.000000   0.000000   0.000000   0.000000   0.000000
    14  H    0.000000   0.000000   0.000000   0.000000   0.000000   0.000000
    15  H    0.000000   0.000000   0.000000   0.000000   0.000000   0.000000
    16  C    0.000000   0.000000   0.000000   0.000000   0.000000   0.000000
    17  H    0.000000   0.000000   0.000000   0.000000   0.000000   0.000000
    18  H    0.000000   0.000000   0.000000   0.000000   0.000000   0.000000
    19  H    0.000000   0.000000   0.000000   0.000000   0.000000   0.000000
    20  C    0.000000   0.000000   0.000000   0.000000   0.000000   0.000000
    21  H    0.000000   0.000000   0.000000   0.000000   0.000000   0.000000
    22  H    0.000000   0.000000   0.000000   0.000000   0.000000   0.000000
    23  H    0.000000   0.000000   0.000000   0.000000   0.000000   0.000000
    24  N    0.000000   0.000000   0.000000   0.000000   0.000000   0.000000
    25  N    0.000000   0.000000   0.000000   0.000000   0.000000   0.000000
    26  Cl   0.000000   0.000000   0.000000   0.000000   0.000000   0.000000
             13         14         15         16         17         18
     1  C    0.000000   0.000000   0.000000   0.000000   0.000000   0.000000
     2  C    0.000000   0.000000   0.000000   0.000000   0.000000   0.000000
     3  C    0.000000   0.000000   0.000000   0.000000   0.000000   0.000000
     4  H    0.000000   0.000000   0.000000   0.000000   0.000000   0.000000
     5  H    0.000000   0.000000   0.000000   0.000000   0.000000   0.000000
     6  H    0.000000   0.000000   0.000000   0.000000   0.000000   0.000000
     7  C    0.000000   0.000000   0.000000   0.000000   0.000000   0.000000
     8  H    0.000000   0.000000   0.000000   0.000000   0.000000   0.000000
     9  H    0.000000   0.000000   0.000000   0.000000   0.000000   0.000000
    10  C    0.000000   0.000000   0.000000   0.000000   0.000000   0.000000
    11  H    0.000000   0.000000   0.000000   0.000000   0.000000   0.000000
    12  H    0.000000   0.000000   0.000000   0.000000   0.000000   0.000000
    13  C    4.219455   0.000000   0.000000   0.000000   0.000000   0.000000
    14  H    0.000000   0.870550   0.000000   0.000000   0.000000   0.000000
    15  H    0.000000   0.000000   0.850774   0.000000   0.000000   0.000000
    16  C    0.000000   0.000000   0.000000   4.456384   0.000000   0.000000
    17  H    0.000000   0.000000   0.000000   0.000000   0.852609   0.000000
    18  H    0.000000   0.000000   0.000000   0.000000   0.000000   0.841828
    19  H    0.000000   0.000000   0.000000   0.000000   0.000000   0.000000
    20  C    0.000000   0.000000   0.000000   0.000000   0.000000   0.000000
    21  H    0.000000   0.000000   0.000000   0.000000   0.000000   0.000000
    22  H    0.000000   0.000000   0.000000   0.000000   0.000000   0.000000
    23  H    0.000000   0.000000   0.000000   0.000000   0.000000   0.000000
    24  N    0.000000   0.000000   0.000000   0.000000   0.000000   0.000000
    25  N    0.000000   0.000000   0.000000   0.000000   0.000000   0.000000
    26  Cl   0.000000   0.000000   0.000000   0.000000   0.000000   0.000000
             19         20         21         22         23         24
     1  C    0.000000   0.000000   0.000000   0.000000   0.000000   0.000000
     2  C    0.000000   0.000000   0.000000   0.000000   0.000000   0.000000
     3  C    0.000000   0.000000   0.000000   0.000000   0.000000   0.000000
     4  H    0.000000   0.000000   0.000000   0.000000   0.000000   0.000000
     5  H    0.000000   0.000000   0.000000   0.000000   0.000000   0.000000
     6  H    0.000000   0.000000   0.000000   0.000000   0.000000   0.000000
     7  C    0.000000   0.000000   0.000000   0.000000   0.000000   0.000000
     8  H    0.000000   0.000000   0.000000   0.000000   0.000000   0.000000
     9  H    0.000000   0.000000   0.000000   0.000000   0.000000   0.000000
    10  C    0.000000   0.000000   0.000000   0.000000   0.000000   0.000000
    11  H    0.000000   0.000000   0.000000   0.000000   0.000000   0.000000
    12  H    0.000000   0.000000   0.000000   0.000000   0.000000   0.000000
    13  C    0.000000   0.000000   0.000000   0.000000   0.000000   0.000000
    14  H    0.000000   0.000000   0.000000   0.000000   0.000000   0.000000
    15  H    0.000000   0.000000   0.000000   0.000000   0.000000   0.000000
    16  C    0.000000   0.000000   0.000000   0.000000   0.000000   0.000000
    17  H    0.000000   0.000000   0.000000   0.000000   0.000000   0.000000
    18  H    0.000000   0.000000   0.000000   0.000000   0.000000   0.000000
    19  H    0.841702   0.000000   0.000000   0.000000   0.000000   0.000000
    20  C    0.000000   4.326560   0.000000   0.000000   0.000000   0.000000
    21  H    0.000000   0.000000   0.802292   0.000000   0.000000   0.000000
    22  H    0.000000   0.000000   0.000000   0.775264   0.000000   0.000000
    23  H    0.000000   0.000000   0.000000   0.000000   0.817016   0.000000
    24  N    0.000000   0.000000   0.000000   0.000000   0.000000   5.131415
    25  N    0.000000   0.000000   0.000000   0.000000   0.000000   0.000000
    26  Cl   0.000000   0.000000   0.000000   0.000000   0.000000   0.000000
             25         26
     1  C    0.000000   0.000000
     2  C    0.000000   0.000000
     3  C    0.000000   0.000000
     4  H    0.000000   0.000000
     5  H    0.000000   0.000000
     6  H    0.000000   0.000000
     7  C    0.000000   0.000000
     8  H    0.000000   0.000000
     9  H    0.000000   0.000000
    10  C    0.000000   0.000000
    11  H    0.000000   0.000000
    12  H    0.000000   0.000000
    13  C    0.000000   0.000000
    14  H    0.000000   0.000000
    15  H    0.000000   0.000000
    16  C    0.000000   0.000000
    17  H    0.000000   0.000000
    18  H    0.000000   0.000000
    19  H    0.000000   0.000000
    20  C    0.000000   0.000000
    21  H    0.000000   0.000000
    22  H    0.000000   0.000000
    23  H    0.000000   0.000000
    24  N    0.000000   0.000000
    25  N    4.870737   0.000000
    26  Cl   0.000000   7.999973
 Mulliken atomic charges:
              1
     1  C    0.086782
     2  C   -0.017989
     3  C   -0.269737
     4  H    0.218423
     5  H    0.227503
     6  H    0.226292
     7  C   -0.184530
     8  H    0.164105
     9  H    0.173073
    10  C   -0.266759
    11  H    0.149290
    12  H    0.150109
    13  C   -0.219455
    14  H    0.129450
    15  H    0.149226
    16  C   -0.456384
    17  H    0.147391
    18  H    0.158172
    19  H    0.158298
    20  C   -0.326560
    21  H    0.197708
    22  H    0.224736
    23  H    0.182984
    24  N   -0.131415
    25  N    0.129263
    26  Cl  -0.999973
 Sum of Mulliken atomic charges =   0.00000
 Mulliken charges with hydrogens summed into heavy atoms:
              1
     1  C    0.313074
     2  C    0.200434
     3  C   -0.042235
     7  C    0.152647
    10  C    0.032639
    13  C    0.059221
    16  C    0.007477
    20  C    0.278868
    24  N   -0.131415
    25  N    0.129263
    26  Cl  -0.999973
 Sum of Mulliken charges with hydrogens summed into heavy atoms =   0.00000
 Charge=              0.0000 electrons
 Dipole moment (field-independent basis, Debye):
    X=             -0.2166    Y=            -23.5368    Z=             -1.0637  Tot=             23.5618
 N-N= 3.591184273809D+02 E-N=-5.626808508069D+02  KE=-1.110485918873D+02
 Calling FoFJK, ICntrl=      2127 FMM=F ISym2X=0 I1Cent= 0 IOpClX= 0 NMat=1 NMatS=1 NMatT=0.
 ***** Axes restored to original set *****
 -------------------------------------------------------------------
 Center     Atomic                   Forces (Hartrees/Bohr)
 Number     Number              X              Y              Z
 -------------------------------------------------------------------
      1        6           0.036698306    0.060056167   -0.076190585
      2        6           0.018149414   -0.045979417    0.013542312
      3        6          -0.016589282   -0.049311779    0.064597488
      4        1           0.011678967   -0.004593394    0.003942387
      5        1          -0.012221553    0.006505158    0.009911015
      6        1           0.001283970   -0.010126126   -0.009268134
      7        6           0.002116481   -0.017051480   -0.009923534
      8        1           0.024242894    0.004189648    0.001790633
      9        1          -0.005603035    0.006207389    0.027802177
     10        6           0.011573355    0.008008535    0.013358368
     11        1          -0.019797547   -0.006556138   -0.001783050
     12        1           0.004670798   -0.007681242   -0.018877785
     13        6          -0.010863299   -0.010233247   -0.017226899
     14        1           0.019166903    0.003017416    0.003480549
     15        1          -0.005295803    0.006075170    0.019632207
     16        6           0.005051850    0.021660451    0.001034926
     17        1           0.004167922   -0.008845993   -0.011307654
     18        1           0.004340586   -0.010320641    0.009667251
     19        1          -0.014087978   -0.006675578    0.000491203
     20        6           0.014078860   -0.017357617   -0.023443964
     21        1          -0.015752148    0.011799471   -0.011820681
     22        1          -0.012726472   -0.000566600    0.022642989
     23        1           0.014726173    0.016611453    0.002945740
     24        7          -0.057344601    0.066037114    0.032409471
     25        7          -0.006319533   -0.015816907   -0.040958037
     26       17           0.004654774    0.000948186   -0.006448394
 -------------------------------------------------------------------
 Cartesian Forces:  Max     0.076190585 RMS     0.022656581

 GradGradGradGradGradGradGradGradGradGradGradGradGradGradGradGradGradGrad
 Berny optimization.
 Internal  Forces:  Max     0.058766847 RMS     0.008875957
 Search for a local minimum.
 Step number   1 out of a maximum of  156
 All quantities printed in internal units (Hartrees-Bohrs-Radians)
 Mixed Optimization -- RFO/linear search
 Second derivative matrix not updated -- first step.
     Eigenvalues ---    0.00237   0.00323   0.00397   0.00456   0.00655
     Eigenvalues ---    0.00718   0.00780   0.00988   0.01107   0.01195
     Eigenvalues ---    0.01447   0.01770   0.02080   0.02128   0.02469
     Eigenvalues ---    0.02835   0.03190   0.03568   0.03706   0.04221
     Eigenvalues ---    0.04459   0.04912   0.05399   0.05720   0.05720
     Eigenvalues ---    0.05729   0.05816   0.06363   0.06864   0.07277
     Eigenvalues ---    0.07635   0.08325   0.09062   0.10142   0.10937
     Eigenvalues ---    0.11191   0.11461   0.14426   0.14980   0.15644
     Eigenvalues ---    0.15974   0.16000   0.16000   0.16000   0.16142
     Eigenvalues ---    0.17036   0.18512   0.22312   0.25566   0.26458
     Eigenvalues ---    0.26824   0.27053   0.28519   0.30088   0.30677
     Eigenvalues ---    0.31100   0.32986   0.34208   0.34408   0.35757
     Eigenvalues ---    0.36631   0.37230   0.37230   0.37230   0.37230
     Eigenvalues ---    0.37230   0.37230   0.37230   0.37230   0.37230
     Eigenvalues ---    0.37230   0.544111000.000001000.000001000.00000
     Eigenvalues --- 1000.000001000.000001000.000001000.000001000.00000
     Eigenvalues --- 1000.000001000.000001000.000001000.000001000.00000
     Eigenvalues --- 1000.000001000.000001000.000001000.000001000.00000
     Eigenvalues --- 1000.000001000.000001000.000001000.000001000.00000
     Eigenvalues --- 1000.000001000.000001000.000001000.000001000.00000
     Eigenvalues --- 1000.000001000.000001000.000001000.000001000.00000
     Eigenvalues --- 1000.000001000.000001000.000001000.000001000.00000
     Eigenvalues --- 1000.000001000.000001000.000001000.000001000.00000
     Eigenvalues --- 1000.000001000.000001000.000001000.000001000.00000
     Eigenvalues --- 1000.000001000.000001000.000001000.000001000.00000
     Eigenvalues --- 1000.000001000.000001000.000001000.000001000.00000
     Eigenvalues --- 1000.000001000.000001000.000001000.000001000.00000
     Eigenvalues --- 1000.000001000.000001000.000001000.000001000.00000
     Eigenvalues --- 1000.000001000.000001000.000001000.000001000.00000
     Eigenvalues --- 1000.000001000.000001000.000001000.000001000.00000
     Eigenvalues --- 1000.000001000.000001000.000001000.000001000.00000
     Eigenvalues --- 1000.000001000.000001000.000001000.000001000.00000
     Eigenvalues --- 1000.000001000.000001000.000001000.000001000.00000
     Eigenvalues --- 1000.000001000.000001000.000001000.000001000.00000
     Eigenvalues --- 1000.000001000.000001000.000001000.000001000.00000
     Eigenvalues --- 1000.000001000.000001000.000001000.000001000.00000
     Eigenvalues --- 1000.000001000.000001000.000001000.000001000.00000
     Eigenvalues --- 1000.000001000.000001000.000001000.000001000.00000
     Eigenvalues --- 1000.000001000.000001000.000001000.000001000.00000
     Eigenvalues --- 1000.000001000.000001000.000001000.000001000.00000
     Eigenvalues --- 1000.000001000.000001000.000001000.000001000.00000
     Eigenvalues --- 1000.000001000.000001000.000001000.000001000.00000
     Eigenvalues --- 1000.000001000.000001000.000001000.000001000.00000
     Eigenvalues --- 1000.000001000.000001000.000001000.000001000.00000
     Eigenvalues --- 1000.000001000.000001000.000001000.00000
 RFO step:  Lambda=-6.97925590D-02 EMin= 2.36824179D-03
 Linear search not attempted -- first point.
 Maximum step size (   0.300) exceeded in Quadratic search.
    -- Step size scaled by   0.479
 Iteration  1 RMS(Cart)=  0.02355295 RMS(Int)=  0.00062052
 Iteration  2 RMS(Cart)=  0.00069878 RMS(Int)=  0.00035646
 Iteration  3 RMS(Cart)=  0.00000063 RMS(Int)=  0.00035646
 Variable       Old X    -DE/DX   Delta X   Delta X   Delta X     New X
                                 (Linear)    (Quad)   (Total)
    R1        2.81031  -0.05877   0.00000  -0.07697  -0.07717   2.73315
    R2        2.02201   0.00700   0.00000   0.00414   0.00433   2.02634
    R3        2.78483  -0.01185   0.00000  -0.02596  -0.02561   2.75922
    R4        9.58091   0.00539   0.00000  -0.00575  -0.00626   9.57465
    R5        2.02201   0.00905   0.00000   0.00981   0.00981   2.03182
    R6        2.89243  -0.04564   0.00000  -0.06475  -0.06478   2.82765
    R7        2.49942   0.02003   0.00000   0.01762   0.01715   2.51657
    R8        2.02201  -0.00141   0.00000  -0.00152  -0.00152   2.02048
    R9        2.70124  -0.01400   0.00000  -0.00993  -0.00936   2.69187
   R10        8.58711   0.00826   0.00000   0.03269   0.03238   8.61949
   R11        2.02201   0.02459   0.00000   0.02665   0.02665   2.04866
   R12        2.02201   0.01816   0.00000   0.02518   0.02559   2.04760
   R13        2.91018   0.00972   0.00000   0.01425   0.01416   2.92434
   R14        2.77790   0.02247   0.00000   0.02767   0.02780   2.80570
   R15       10.55993  -0.00267   0.00000  -0.02974  -0.02955  10.53038
   R16        8.81883  -0.01012   0.00000  -0.03136  -0.03087   8.78796
   R17        2.02201   0.01535   0.00000   0.01962   0.01962   2.04163
   R18        2.02201   0.02060   0.00000   0.02233   0.02233   2.04434
   R19        2.91018   0.00643   0.00000   0.00964   0.00969   2.91987
   R20       10.22701  -0.00323   0.00000  -0.01224  -0.01208  10.21493
   R21        2.02201   0.01940   0.00000   0.02102   0.02102   2.04303
   R22        2.02201   0.02067   0.00000   0.02231   0.02228   2.04429
   R23        2.91018   0.00418   0.00000   0.00565   0.00565   2.91583
   R24       10.30622   0.00093   0.00000   0.00173   0.00166  10.30788
   R25        2.02201   0.01415   0.00000   0.01534   0.01534   2.03735
   R26        2.02201   0.01440   0.00000   0.01561   0.01561   2.03762
   R27        2.02201   0.01490   0.00000   0.01615   0.01615   2.03816
   R28        2.02201   0.02245   0.00000   0.02433   0.02433   2.04634
   R29        2.02201   0.02243   0.00000   0.03003   0.03000   2.05201
   R30        2.02201   0.02167   0.00000   0.02349   0.02349   2.04549
   R31        2.77790   0.00767   0.00000   0.00581   0.00609   2.78398
   R32        9.19614  -0.00396   0.00000   0.02060   0.02033   9.21647
    A1        2.27561  -0.00279   0.00000  -0.01380  -0.01349   2.26212
    A2        1.73676   0.01321   0.00000   0.04061   0.03949   1.77626
    A3        1.87588  -0.00997   0.00000  -0.04484  -0.04459   1.83129
    A4        2.26985  -0.01077   0.00000  -0.02814  -0.02782   2.24203
    A5        1.98496  -0.00648   0.00000  -0.02489  -0.02453   1.96043
    A6        2.17658  -0.00331   0.00000  -0.01110  -0.01071   2.16587
    A7        2.17687   0.01522   0.00000   0.02844   0.02886   2.20573
    A8        1.92863  -0.01153   0.00000  -0.01622  -0.01731   1.91132
    A9        2.24573  -0.00124   0.00000  -0.00300  -0.00265   2.24308
   A10        1.78064   0.00771   0.00000   0.01603   0.01407   1.79472
   A11        2.24873  -0.00804   0.00000  -0.01808  -0.01731   2.23142
   A12        1.91063  -0.00340   0.00000  -0.01008  -0.00999   1.90064
   A13        1.91063  -0.00250   0.00000  -0.00396  -0.00395   1.90669
   A14        1.91063   0.00460   0.00000   0.00939   0.00918   1.91981
   A15        2.38805   0.00308   0.00000   0.00460   0.00450   2.39256
   A16        1.91063   0.00226   0.00000  -0.00098  -0.00113   1.90950
   A17        1.91063  -0.00118   0.00000   0.00214   0.00228   1.91292
   A18        1.91063   0.00022   0.00000   0.00348   0.00353   1.91417
   A19        1.69710   0.00142   0.00000   0.00645   0.00640   1.70350
   A20        1.60139  -0.00752   0.00000  -0.02085  -0.02050   1.58089
   A21        1.91063  -0.00145   0.00000  -0.00152  -0.00154   1.90909
   A22        1.91063   0.00187   0.00000   0.00588   0.00583   1.91646
   A23        1.91063  -0.00044   0.00000  -0.00186  -0.00177   1.90886
   A24        1.91063  -0.00237   0.00000  -0.00759  -0.00751   1.90312
   A25        1.91063   0.00153   0.00000   0.00156   0.00151   1.91215
   A26        1.91063   0.00086   0.00000   0.00353   0.00348   1.91411
   A27        2.04930  -0.00065   0.00000  -0.00345  -0.00347   2.04583
   A28        1.91063   0.00139   0.00000   0.00439   0.00435   1.91498
   A29        1.91063  -0.00171   0.00000  -0.00384  -0.00377   1.90686
   A30        1.91063   0.00188   0.00000   0.00501   0.00500   1.91563
   A31        1.91063  -0.00060   0.00000  -0.00495  -0.00497   1.90566
   A32        1.91063  -0.00078   0.00000  -0.00055  -0.00056   1.91008
   A33        1.91063  -0.00018   0.00000  -0.00006  -0.00008   1.91056
   A34        2.36234  -0.00256   0.00000  -0.00436  -0.00433   2.35801
   A35        1.91063   0.00549   0.00000   0.01196   0.01190   1.92254
   A36        1.91063   0.00250   0.00000   0.00465   0.00462   1.91526
   A37        1.91063   0.00474   0.00000   0.00996   0.00991   1.92054
   A38        1.91063  -0.00409   0.00000  -0.00866  -0.00869   1.90194
   A39        1.91063  -0.00427   0.00000  -0.00777  -0.00785   1.90278
   A40        1.91063  -0.00437   0.00000  -0.01014  -0.01015   1.90048
   A41        1.91063  -0.00563   0.00000  -0.01186  -0.01180   1.89883
   A42        1.91063  -0.00236   0.00000  -0.00387  -0.00403   1.90660
   A43        1.91063   0.00545   0.00000   0.01232   0.01210   1.92273
   A44        1.91063   0.00098   0.00000   0.00376   0.00360   1.91424
   A45        1.91063  -0.00346   0.00000  -0.01981  -0.01940   1.89123
   A46        1.91063   0.00502   0.00000   0.01947   0.01927   1.92990
   A47        2.46579  -0.00676   0.00000  -0.00582  -0.00592   2.45987
   A48        1.73265   0.01046   0.00000   0.02557   0.02553   1.75818
   A49        1.99794   0.01041   0.00000   0.02791   0.02724   2.02519
   A50        1.96009  -0.00649   0.00000  -0.00220  -0.00267   1.95741
   A51        1.82984   0.00350   0.00000   0.02766   0.02621   1.85605
   A52        2.22282   0.00191   0.00000  -0.00295  -0.00333   2.21949
   A53        2.22966  -0.00559   0.00000  -0.02589  -0.02448   2.20518
   A54        0.45877   0.00267   0.00000   0.00586   0.00575   0.46452
   A55        0.55428   0.00498   0.00000   0.01191   0.01183   0.56611
   A56        0.50551   0.00330   0.00000   0.00595   0.00593   0.51144
   A57        0.88441   0.00466   0.00000   0.00778   0.00772   0.89213
   A58        0.78337  -0.00138   0.00000  -0.00141  -0.00181   0.78157
   A59        0.53126   0.00134   0.00000   0.00290   0.00275   0.53401
   A60        0.63717   0.00383   0.00000   0.00846   0.00833   0.64550
   A61        0.41427   0.00115   0.00000   0.00083   0.00081   0.41508
   A62        0.85423   0.00306   0.00000   0.00344   0.00339   0.85762
   A63        0.96370  -0.00012   0.00000   0.00260   0.00210   0.96581
   A64        0.39183   0.00187   0.00000   0.00339   0.00338   0.39521
   A65        0.49964   0.00154   0.00000   0.00191   0.00192   0.50156
   A66        0.96417   0.00178   0.00000   0.00215   0.00196   0.96613
   A67        0.47274   0.00361   0.00000   0.00547   0.00547   0.47821
   A68        0.47797   0.00063   0.00000  -0.00236  -0.00238   0.47559
   A69        0.97531   0.00283   0.00000   0.00661   0.00652   0.98184
   A70        0.45837   0.00240   0.00000   0.00307   0.00307   0.46144
   A71        1.24509   0.00227   0.00000   0.00385   0.00355   1.24864
   A72        1.45304   0.00338   0.00000   0.00409   0.00394   1.45698
    D1       -1.02606   0.00064   0.00000   0.01979   0.01913  -1.00694
    D2        2.24385   0.01359   0.00000   0.06074   0.06060   2.30445
    D3        2.15967   0.00897   0.00000   0.05086   0.05084   2.21051
    D4       -0.85361   0.02192   0.00000   0.09181   0.09232  -0.76129
    D5       -2.05145   0.00411   0.00000   0.02525   0.02431  -2.02714
    D6        1.21846   0.01706   0.00000   0.06620   0.06579   1.28425
    D7        0.64645  -0.00752   0.00000  -0.04363  -0.04509   0.60136
    D8        2.73721  -0.00408   0.00000  -0.01791  -0.01850   2.71870
    D9       -2.45121   0.00048   0.00000  -0.01323  -0.01439  -2.46560
   D10       -0.36046   0.00391   0.00000   0.01248   0.01220  -0.34826
   D11       -1.34277  -0.00087   0.00000  -0.00492  -0.00566  -1.34843
   D12        0.74798   0.00256   0.00000   0.02080   0.02093   0.76892
   D13       -2.28116  -0.00730   0.00000  -0.01491  -0.01483  -2.29599
   D14       -2.18318  -0.00608   0.00000  -0.01752  -0.01737  -2.20054
   D15        3.14103  -0.00629   0.00000  -0.01247  -0.01248   3.12855
   D16       -2.72384  -0.00468   0.00000  -0.01163  -0.01153  -2.73537
   D17       -0.50029  -0.00327   0.00000  -0.01445  -0.01385  -0.51413
   D18       -0.37657  -0.00038   0.00000  -0.00420  -0.00415  -0.38072
   D19       -0.27858   0.00084   0.00000  -0.00682  -0.00669  -0.28527
   D20       -1.23756   0.00062   0.00000  -0.00176  -0.00181  -1.23937
   D21       -0.81925   0.00224   0.00000  -0.00093  -0.00086  -0.82010
   D22        1.40431   0.00365   0.00000  -0.00375  -0.00317   1.40114
   D23        2.83943   0.01273   0.00000   0.03603   0.03553   2.87496
   D24        0.72098  -0.00262   0.00000  -0.01042  -0.01063   0.71035
   D25       -0.25356   0.00392   0.00000   0.01054   0.01037  -0.24319
   D26       -2.37202  -0.01143   0.00000  -0.03591  -0.03579  -2.40781
   D27        2.90990   0.00792   0.00000   0.02717   0.02712   2.93702
   D28       -0.27378   0.00347   0.00000  -0.00220  -0.00285  -0.27662
   D29       -0.28030   0.01610   0.00000   0.05133   0.05162  -0.22868
   D30        2.81921   0.01165   0.00000   0.02196   0.02165   2.84086
   D31        0.70733  -0.02098   0.00000  -0.08605  -0.08704   0.62029
   D32       -2.39195  -0.01675   0.00000  -0.05728  -0.05807  -2.45002
   D33       -2.30563  -0.00871   0.00000  -0.04657  -0.04744  -2.35308
   D34        0.87827  -0.00448   0.00000  -0.01780  -0.01846   0.85980
   D35        3.14159   0.00156   0.00000   0.00327   0.00322  -3.13838
   D36       -1.04720  -0.00108   0.00000  -0.00336  -0.00337  -1.05056
   D37        1.04720   0.00085   0.00000   0.00343   0.00339   1.05059
   D38        1.04720   0.00587   0.00000   0.01864   0.01848   1.06568
   D39        3.14159   0.00323   0.00000   0.01201   0.01190  -3.12969
   D40       -1.04720   0.00516   0.00000   0.01880   0.01866  -1.02854
   D41       -1.04720   0.00580   0.00000   0.01448   0.01421  -1.03299
   D42        1.04720   0.00315   0.00000   0.00785   0.00763   1.05482
   D43        3.14159   0.00508   0.00000   0.01464   0.01438  -3.12721
   D44        0.60128  -0.00171   0.00000  -0.00498  -0.00490   0.59638
   D45        2.69567  -0.00436   0.00000  -0.01161  -0.01148   2.68419
   D46       -1.49312  -0.00243   0.00000  -0.00482  -0.00472  -1.49784
   D47       -3.07366  -0.00555   0.00000  -0.02129  -0.02142  -3.09508
   D48       -1.11513   0.00996   0.00000   0.02718   0.02728  -1.08784
   D49       -0.97927  -0.00762   0.00000  -0.02657  -0.02663  -1.00590
   D50        0.97927   0.00788   0.00000   0.02190   0.02207   1.00134
   D51        1.11513  -0.00544   0.00000  -0.02432  -0.02444   1.09069
   D52        3.07366   0.01007   0.00000   0.02415   0.02426   3.09793
   D53       -0.60067  -0.00424   0.00000  -0.02393  -0.02408  -0.62474
   D54        1.35787   0.01126   0.00000   0.02454   0.02463   1.38250
   D55        2.46207  -0.00315   0.00000  -0.00750  -0.00764   2.45443
   D56        2.84465  -0.00135   0.00000  -0.00215  -0.00237   2.84227
   D57       -2.52751  -0.00116   0.00000  -0.00595  -0.00594  -2.53345
   D58       -1.44323   0.00120   0.00000  -0.00363  -0.00363  -1.44686
   D59        1.46471   0.00223   0.00000  -0.00286  -0.00242   1.46228
   D60       -1.57336  -0.00238   0.00000  -0.00039  -0.00057  -1.57394
   D61       -1.19079  -0.00059   0.00000   0.00496   0.00470  -1.18610
   D62       -0.27976  -0.00040   0.00000   0.00116   0.00113  -0.27864
   D63        0.80452   0.00196   0.00000   0.00348   0.00344   0.80796
   D64       -2.57073   0.00299   0.00000   0.00426   0.00465  -2.56609
   D65        0.34441  -0.00315   0.00000   0.00059   0.00045   0.34486
   D66        0.72698  -0.00135   0.00000   0.00594   0.00572   0.73269
   D67        1.63800  -0.00116   0.00000   0.00214   0.00215   1.64015
   D68        2.72229   0.00120   0.00000   0.00446   0.00446   2.72675
   D69       -0.65296   0.00223   0.00000   0.00524   0.00567  -0.64729
   D70       -0.71124   0.00255   0.00000   0.00990   0.00974  -0.70149
   D71       -2.80563   0.00259   0.00000   0.00828   0.00814  -2.79750
   D72        1.38316   0.00205   0.00000   0.00764   0.00755   1.39071
   D73       -1.04720  -0.00035   0.00000  -0.00005  -0.00003  -1.04723
   D74        1.04720  -0.00128   0.00000  -0.00578  -0.00577   1.04142
   D75        3.14159  -0.00140   0.00000  -0.00513  -0.00513   3.13646
   D76        3.14159   0.00076   0.00000   0.00200   0.00202  -3.13957
   D77       -1.04720  -0.00017   0.00000  -0.00373  -0.00372  -1.05092
   D78        1.04720  -0.00029   0.00000  -0.00308  -0.00308   1.04412
   D79        1.04720   0.00220   0.00000   0.00818   0.00816   1.05536
   D80        3.14159   0.00127   0.00000   0.00245   0.00242  -3.13917
   D81       -1.04720   0.00115   0.00000   0.00309   0.00306  -1.04413
   D82        1.53518  -0.00165   0.00000  -0.00282  -0.00299   1.53219
   D83        1.92583  -0.00358   0.00000  -0.00480  -0.00512   1.92071
   D84        0.46021  -0.00167   0.00000  -0.00568  -0.00559   0.45462
   D85        0.29373  -0.00494   0.00000  -0.01746  -0.01733   0.27640
   D86       -0.81672   0.00095   0.00000  -0.00077  -0.00075  -0.81747
   D87        1.17022   0.00129   0.00000  -0.00318  -0.00279   1.16743
   D88        0.21217  -0.00052   0.00000  -0.00125  -0.00122   0.21096
   D89        2.30657  -0.00024   0.00000  -0.00126  -0.00122   2.30535
   D90       -1.88222  -0.00166   0.00000  -0.00500  -0.00498  -1.88720
   D91        1.04720   0.00151   0.00000   0.00461   0.00459   1.05179
   D92        3.14159   0.00140   0.00000   0.00417   0.00415  -3.13745
   D93       -1.04720   0.00048   0.00000   0.00070   0.00065  -1.04655
   D94       -1.04720  -0.00086   0.00000  -0.00350  -0.00348  -1.05068
   D95        1.04720  -0.00098   0.00000  -0.00394  -0.00393   1.04327
   D96        3.14159  -0.00190   0.00000  -0.00741  -0.00742   3.13417
   D97       -3.14159   0.00046   0.00000   0.00294   0.00298  -3.13861
   D98       -1.04720   0.00034   0.00000   0.00250   0.00254  -1.04466
   D99        1.04720  -0.00058   0.00000  -0.00097  -0.00096   1.04624
   D100      -0.27501  -0.00091   0.00000   0.00014   0.00002  -0.27500
   D101      -0.02324  -0.00084   0.00000   0.00153   0.00133  -0.02191
   D102      -0.68210   0.00036   0.00000  -0.00048  -0.00045  -0.68255
   D103      -0.90477  -0.00418   0.00000  -0.01006  -0.01006  -0.91484
   D104       0.18568   0.00143   0.00000   0.00332   0.00329   0.18897
   D105      -0.87484   0.00104   0.00000  -0.00004   0.00036  -0.87448
   D106       1.89251  -0.00044   0.00000  -0.00440  -0.00422   1.88829
   D107      -2.29628  -0.00618   0.00000  -0.01411  -0.01414  -2.31042
   D108      -0.20188  -0.00155   0.00000  -0.00009  -0.00031  -0.20219
   D109       2.64372   0.00279   0.00000   0.01673   0.01681   2.66054
   D110      -0.54933  -0.00238   0.00000  -0.01778  -0.01760  -0.56693
   D111      -1.54507  -0.00289   0.00000  -0.00238  -0.00214  -1.54720
   D112       1.54507  -0.00806   0.00000  -0.03689  -0.03655   1.50851
   D113       0.54933  -0.00074   0.00000   0.00201   0.00196   0.55129
   D114      -2.64372  -0.00591   0.00000  -0.03250  -0.03246  -2.67618
   D115       0.00623  -0.00108   0.00000  -0.00244  -0.00229   0.00395
   D116      -0.08907  -0.00029   0.00000   0.00145   0.00150  -0.08757
   D117       0.56150   0.00098   0.00000   0.00393   0.00396   0.56546
   D118       0.69007   0.00365   0.00000   0.00931   0.00932   0.69938
   D119       0.25368  -0.00117   0.00000   0.00087   0.00075   0.25443
   D120       0.67344   0.00076   0.00000   0.00390   0.00373   0.67717
         Item               Value     Threshold  Converged?
 Maximum Force            0.058767     0.000450     NO 
 RMS     Force            0.008876     0.000300     NO 
 Maximum Displacement     0.143403     0.001800     NO 
 RMS     Displacement     0.023443     0.001200     NO 
 Predicted change in Energy=-2.860131D-02
 GradGradGradGradGradGradGradGradGradGradGradGradGradGradGradGradGradGrad

                          Input orientation:                          
 ---------------------------------------------------------------------
 Center     Atomic      Atomic             Coordinates (Angstroms)
 Number     Number       Type             X           Y           Z
 ---------------------------------------------------------------------
      1          6           0      -11.606116    2.908800   21.621266
      2          6           0       -9.947539    4.445624   21.890078
      3          6           0      -11.918441    4.147469   20.943041
      4          1           0       -9.028482    4.889997   22.227581
      5          1           0      -12.499962    4.293626   20.057803
      6          1           0      -12.265086    2.167515   22.028774
      7          6           0       -9.524123    2.182723   22.794910
      8          1           0       -8.451252    2.338362   22.796971
      9          1           0       -9.926257    2.497520   23.750554
     10          6           0       -9.820969    0.678910   22.582375
     11          1           0      -10.889841    0.521732   22.576701
     12          1           0       -9.411542    0.354803   21.634929
     13          6           0       -9.184365   -0.136322   23.730223
     14          1           0       -8.114742    0.020686   23.739582
     15          1           0       -9.600061    0.191316   24.673684
     16          6           0       -9.481337   -1.637301   23.531013
     17          1           0       -9.068882   -1.976444   22.594422
     18          1           0       -9.040485   -2.205463   24.334435
     19          1           0      -10.546602   -1.805999   23.527620
     20          6           0      -11.434480    6.469617   21.972835
     21          1           0      -12.126578    6.883283   21.249991
     22          1           0      -11.916120    6.448160   22.945816
     23          1           0      -10.550498    7.092709   22.017383
     24          7           0      -10.149942    2.974524   21.705977
     25          7           0      -11.076953    5.089521   21.601503
     26         17           0      -13.818277    3.313276   26.161537
 ---------------------------------------------------------------------
                    Distance matrix (angstroms):
                    1          2          3          4          5
     1  C    0.000000
     2  C    2.277052   0.000000
     3  C    1.446318   2.206860   0.000000
     4  H    3.307107   1.075194   3.248577   0.000000
     5  H    2.271810   3.145663   1.069194   4.137000   0.000000
     6  H    1.072291   3.252698   2.284557   4.234033   2.908650
     7  C    2.497864   2.473606   3.608657   2.810134   4.561062
     8  H    3.414799   2.738957   4.327971   2.677357   5.264804
     9  H    2.743163   2.693870   3.817494   2.974792   4.846274
    10  C    3.013784   3.831896   4.372380   4.299670   5.159132
    11  H    2.669083   4.093448   4.107656   4.761122   4.812954
    12  H    3.367380   4.133668   4.598649   4.589766   5.247857
    13  C    4.425534   4.996279   5.796070   5.248439   6.641107
    14  H    5.001815   5.134188   6.270495   5.179889   7.144485
    15  H    4.552608   5.095915   5.911323   5.328013   6.822371
    16  C    5.369250   6.317593   6.789745   6.671553   7.506742
    17  H    5.590188   6.520053   6.953370   6.876351   7.584229
    18  H    6.332412   7.143850   7.755252   7.401657   8.514442
    19  H    5.194813   6.490240   6.633685   6.987928   7.284276
    20  C    3.582244   2.512845   2.585936   2.889450   3.088290
    21  H    4.025573   3.331681   2.760836   3.811439   2.875248
    22  H    3.791781   3.000007   3.050294   3.358896   3.650138
    23  H    4.333166   2.717871   3.420514   2.685638   3.933856
    24  N    1.460116   1.496327   2.255097   2.280083   3.158972
    25  N    2.244091   1.331711   1.424478   2.151282   2.245310
    26  Cl   5.066687   5.874537   5.615866   6.395638   6.320966
                    6          7          8          9         10
     6  H    0.000000
     7  C    2.846062   0.000000
     8  H    3.894181   1.084104   0.000000
     9  H    2.922935   1.083542   1.763602   0.000000
    10  C    2.914812   1.547495   2.162396   2.164040   0.000000
    11  H    2.213622   2.161410   3.048833   2.492020   1.080382
    12  H    3.403491   2.167838   2.491386   3.054838   1.081817
    13  C    4.206357   2.523533   2.744536   2.736411   1.545129
    14  H    4.976051   2.748302   2.524554   3.068617   2.164161
    15  H    4.243026   2.738843   3.074349   2.505425   2.158732
    16  C    4.947989   3.890534   4.172024   4.164480   2.525885
    17  H    5.263845   4.188807   4.363489   4.699796   2.759834
    18  H    5.902292   4.675491   4.832943   4.821158   3.463882
    19  H    4.581324   4.182371   4.701071   4.353711   2.755867
    20  C    4.381908   4.764738   5.161988   4.605711   6.042122
    21  H    4.781648   5.590600   6.046278   5.507190   6.751690
    22  H    4.391658   4.892685   5.377537   4.496077   6.148657
    23  H    5.215120   5.076017   5.255321   4.950688   6.479833
    24  N    2.286765   1.484714   2.116724   2.111365   2.479141
    25  N    3.183133   3.504993   3.986518   3.558228   4.689679
    26  Cl   4.561239   5.572439   6.409034   4.650389   5.977354
                   11         12         13         14         15
    11  H    0.000000
    12  H    1.760729   0.000000
    13  C    2.161550   2.164040   0.000000
    14  H    3.050330   2.494571   1.081125   0.000000
    15  H    2.483958   3.048983   1.081789   1.762904   0.000000
    16  C    2.748821   2.751087   1.542988   2.158704   2.159544
    17  H    3.091454   2.544161   2.165508   2.492047   3.050354
    18  H    3.734613   3.738980   2.160351   2.483262   2.484505
    19  H    2.537792   3.088641   2.164384   3.048876   2.489713
    20  C    6.003218   6.449605   7.196518   7.465304   7.076492
    21  H    6.615059   7.081006   8.005188   8.329953   7.930157
    22  H    6.025947   6.717167   7.171693   7.509524   6.891861
    23  H    6.603463   6.844184   7.553743   7.675440   7.455769
    24  N    2.705883   2.722723   3.835007   4.123439   4.105595
    25  N    4.674475   5.019190   5.951703   6.248132   5.967572
    26  Cl   5.405507   6.975819   6.267708   7.016931   5.454694
                   16         17         18         19         20
    16  C    0.000000
    17  H    1.078118   0.000000
    18  H    1.078261   1.755249   0.000000
    19  H    1.078545   1.756008   1.754683   0.000000
    20  C    8.483207   8.793086   9.304052   8.467083   0.000000
    21  H    9.208729   9.468461  10.081818   9.120720   1.082877
    22  H    8.464354   8.899673   9.224030   8.387205   1.085877
    23  H    8.924530   9.207480   9.700766   9.025953   1.082429
    24  N    5.004669   5.144911   5.913709   5.131191   3.733219
    25  N    7.177682   7.412563   8.051888   7.179094   1.473220
    26  Cl   7.087800   7.953753   7.524765   6.621809   5.761093
                   21         22         23         24         25
    21  H    0.000000
    22  H    1.763362   0.000000
    23  H    1.765440   1.772669   0.000000
    24  N    4.403794   4.089343   4.149320   0.000000
    25  N    2.107808   2.087409   2.112551   2.311596   0.000000
    26  Cl   6.303180   4.877146   6.491263   5.781301   5.609260
                   26
    26  Cl   0.000000
 Stoichiometry    C8H15ClN2
 Framework group  C1[X(C8H15ClN2)]
 Deg. of freedom    72
 Full point group                 C1      NOp   1
 Largest Abelian subgroup         C1      NOp   1
 Largest concise Abelian subgroup C1      NOp   1
                         Standard orientation:                         
 ---------------------------------------------------------------------
 Center     Atomic      Atomic             Coordinates (Angstroms)
 Number     Number       Type             X           Y           Z
 ---------------------------------------------------------------------
      1          6           0       -0.536329   -0.798181    1.172675
      2          6           0       -1.225422   -1.769534   -0.768096
      3          6           0       -1.860673   -1.364002    1.306086
      4          1           0       -1.217436   -2.091072   -1.794054
[...]
     6  H    0.000000
     7  C    2.824988   0.000000
     8  H    3.883401   1.114926   0.000000
     9  H    2.963733   1.113841   1.783064   0.000000
    10  C    2.983532   1.535642   2.187463   2.197904   0.000000
    11  H    2.357938   2.184871   3.109251   2.551977   1.106683
    12  H    3.382697   2.178604   2.561416   3.112120   1.108804
    13  C    4.336625   2.525603   2.749804   2.801129   1.534401
    14  H    5.080103   2.760441   2.516519   3.139414   2.178437
    15  H    4.459294   2.753834   3.059763   2.566354   2.178796
    16  C    5.115840   3.887495   4.179098   4.214963   2.529929
    17  H    5.401092   4.222333   4.422867   4.787746   2.798852
    18  H    6.111732   4.696285   4.847815   4.898238   3.488914
    19  H    4.829171   4.221870   4.755304   4.436453   2.803942
    20  C    4.596042   4.867341   5.073361   5.001571   6.124094
    21  H    5.021211   5.743235   6.037021   5.908997   6.881584
    22  H    4.731019   4.969682   5.211596   4.855597   6.316443
    23  H    5.406700   5.187900   5.158115   5.406549   6.505308
    24  N    2.190082   1.488961   2.123051   2.158247   2.471097
    25  N    3.344034   3.690541   4.033935   4.019408   4.792410
    26  Cl   4.438485   3.030161   2.829794   2.925150   4.561396
                   11         12         13         14         15
    11  H    0.000000
    12  H    1.762686   0.000000
    13  C    2.177313   2.181282   0.000000
    14  H    3.095909   2.542137   1.108299   0.000000
    15  H    2.548949   3.099704   1.108190   1.768256   0.000000
    16  C    2.758464   2.773612   1.526504   2.167032   2.167624
    17  H    3.114262   2.588094   2.183644   2.538359   3.092530
    18  H    3.772023   3.781753   2.176734   2.501212   2.505271
    19  H    2.578428   3.142453   2.184206   3.092322   2.536848
    20  C    6.269443   6.270297   7.385673   7.514986   7.500695
    21  H    6.913974   6.959649   8.226609   8.423617   8.373764
    22  H    6.422047   6.644560   7.467360   7.627535   7.418392
    23  H    6.817264   6.571936   7.687617   7.659524   7.857041
    24  N    2.748850   2.671332   3.831871   4.109550   4.151726
    25  N    4.913948   4.864939   6.147412   6.348183   6.374997
    26  Cl   5.066238   4.990531   5.356802   5.250344   5.303793
                   16         17         18         19         20
    16  C    0.000000
    17  H    1.096296   0.000000
    18  H    1.096235   1.766334   0.000000
    19  H    1.096039   1.766542   1.766286   0.000000
    20  C    8.648580   8.804014   9.540015   8.797204   0.000000
    21  H    9.408653   9.518905  10.348084   9.480761   1.102737
    22  H    8.794802   9.081575   9.629127   8.911703   1.105091
    23  H    8.996504   9.096140   9.846055   9.267871   1.104237
    24  N    4.999958   5.149820   5.932660   5.188907   3.667144
    25  N    7.320837   7.420323   8.260662   7.449015   1.478759
    26  Cl   6.830208   7.165358   7.504534   7.207806   3.013772
                   21         22         23         24         25
    21  H    0.000000
    22  H    1.796572   0.000000
    23  H    1.787722   1.781733   0.000000
    24  N    4.426866   3.976154   4.093597   0.000000
    25  N    2.112799   2.168829   2.123465   2.328333   0.000000
    26  Cl   4.111354   2.814419   2.990730   2.787381   2.797081
                   26
    26  Cl   0.000000
 Stoichiometry    C8H15ClN2
 Framework group  C1[X(C8H15ClN2)]
 Deg. of freedom    72
 Full point group                 C1      NOp   1
 Largest Abelian subgroup         C1      NOp   1
 Largest concise Abelian subgroup C1      NOp   1
                         Standard orientation:                         
 ---------------------------------------------------------------------
 Center     Atomic      Atomic             Coordinates (Angstroms)
 Number     Number       Type             X           Y           Z
 ---------------------------------------------------------------------
      1          6           0        0.428477   -1.573059   -0.494725
      2          6           0        1.301106    0.208530    0.721699
      3          6           0        1.774368   -1.762101   -0.425140
      4          1           0        1.304729    0.617648    1.751376
      5          1           0        2.384398   -2.539772   -0.848954
      6          1           0       -0.324571   -2.159644   -0.991380
      7          6           0       -1.103800    0.396912   -0.076295
      8          1           0       -1.084164    1.330223    0.533298
      9          1           0       -1.021270    0.717206   -1.139894
     10          6           0       -2.410728   -0.370781    0.170247
     11          1           0       -2.446903   -1.284772   -0.452696
     12          1           0       -2.446612   -0.727363    1.219535
     13          6           0       -3.626001    0.516825   -0.129178
     14          1           0       -3.598808    1.423798    0.507208
     15          1           0       -3.582213    0.879971   -1.175262
     16          6           0       -4.935920   -0.232429    0.100917
     17          1           0       -5.028996   -0.576270    1.137727
     18          1           0       -5.799953    0.408580   -0.109522
     19          1           0       -5.018030   -1.114185   -0.544889
     20          6           0        3.712494   -0.273656    0.135012
     21          1           0        4.431357   -1.104943    0.225714
     22          1           0        3.795422    0.163082   -0.876723
     23          1           0        3.997807    0.509563    0.859238
     24          7           0        0.054389   -0.449335    0.323037
     25          7           0        2.356603   -0.773712    0.448432
     26         17           0        1.571817    1.797457   -0.324134
 ---------------------------------------------------------------------
 Rotational constants (GHZ):      1.9809735      0.4436569      0.3805301

 **********************************************************************

            Population analysis using the SCF density.

 **********************************************************************

 Orbital symmetries:
       Occupied  (A) (A) (A) (A) (A) (A) (A) (A) (A) (A) (A) (A)
                 (A) (A) (A) (A) (A) (A) (A) (A) (A) (A) (A) (A)
                 (A) (A) (A) (A) (A) (A) (A) (A)
       Virtual   (A) (A) (A) (A) (A) (A) (A) (A) (A) (A) (A) (A)
                 (A) (A) (A) (A) (A) (A) (A) (A) (A) (A) (A) (A)
                 (A) (A) (A) (A) (A) (A) (A) (A)
 The electronic state is 1-A.
 Alpha  occ. eigenvalues --   -1.23292  -1.12215  -1.04592  -0.99102  -0.96767
 Alpha  occ. eigenvalues --   -0.93095  -0.89561  -0.82219  -0.77850  -0.76496
 Alpha  occ. eigenvalues --   -0.74213  -0.65864  -0.60964  -0.59651  -0.57599
 Alpha  occ. eigenvalues --   -0.56379  -0.55258  -0.54082  -0.53036  -0.52618
 Alpha  occ. eigenvalues --   -0.50284  -0.49490  -0.48941  -0.46115  -0.45054
 Alpha  occ. eigenvalues --   -0.44405  -0.43227  -0.42234  -0.39276  -0.38868
 Alpha  occ. eigenvalues --   -0.37547  -0.30922
 Alpha virt. eigenvalues --    0.01584   0.02374   0.05546   0.07284   0.12513
 Alpha virt. eigenvalues --    0.13237   0.14311   0.15381   0.16376   0.16970
 Alpha virt. eigenvalues --    0.17296   0.18071   0.18711   0.19000   0.19541
 Alpha virt. eigenvalues --    0.19758   0.20088   0.20807   0.20972   0.21238
 Alpha virt. eigenvalues --    0.21299   0.21381   0.21915   0.22204   0.23095
 Alpha virt. eigenvalues --    0.23553   0.24770   3.41788   3.42086   3.42225
 Alpha virt. eigenvalues --    3.44321   3.44334
          Condensed to atoms (all electrons):
              1          2          3          4          5          6
     1  C    4.104042   0.000000   0.000000   0.000000   0.000000   0.000000
     2  C    0.000000   3.700467   0.000000   0.000000   0.000000   0.000000
     3  C    0.000000   0.000000   4.129467   0.000000   0.000000   0.000000
     4  H    0.000000   0.000000   0.000000   0.833350   0.000000   0.000000
     5  H    0.000000   0.000000   0.000000   0.000000   0.824025   0.000000
     6  H    0.000000   0.000000   0.000000   0.000000   0.000000   0.825091
     7  C    0.000000   0.000000   0.000000   0.000000   0.000000   0.000000
     8  H    0.000000   0.000000   0.000000   0.000000   0.000000   0.000000
     9  H    0.000000   0.000000   0.000000   0.000000   0.000000   0.000000
    10  C    0.000000   0.000000   0.000000   0.000000   0.000000   0.000000
    11  H    0.000000   0.000000   0.000000   0.000000   0.000000   0.000000
    12  H    0.000000   0.000000   0.000000   0.000000   0.000000   0.000000
    13  C    0.000000   0.000000   0.000000   0.000000   0.000000   0.000000
    14  H    0.000000   0.000000   0.000000   0.000000   0.000000   0.000000
    15  H    0.000000   0.000000   0.000000   0.000000   0.000000   0.000000
    16  C    0.000000   0.000000   0.000000   0.000000   0.000000   0.000000
    17  H    0.000000   0.000000   0.000000   0.000000   0.000000   0.000000
    18  H    0.000000   0.000000   0.000000   0.000000   0.000000   0.000000
    19  H    0.000000   0.000000   0.000000   0.000000   0.000000   0.000000
    20  C    0.000000   0.000000   0.000000   0.000000   0.000000   0.000000
    21  H    0.000000   0.000000   0.000000   0.000000   0.000000   0.000000
    22  H    0.000000   0.000000   0.000000   0.000000   0.000000   0.000000
    23  H    0.000000   0.000000   0.000000   0.000000   0.000000   0.000000
    24  N    0.000000   0.000000   0.000000   0.000000   0.000000   0.000000
    25  N    0.000000   0.000000   0.000000   0.000000   0.000000   0.000000
    26  Cl   0.000000   0.000000   0.000000   0.000000   0.000000   0.000000
              7          8          9         10         11         12
     1  C    0.000000   0.000000   0.000000   0.000000   0.000000   0.000000
     2  C    0.000000   0.000000   0.000000   0.000000   0.000000   0.000000
     3  C    0.000000   0.000000   0.000000   0.000000   0.000000   0.000000
     4  H    0.000000   0.000000   0.000000   0.000000   0.000000   0.000000
     5  H    0.000000   0.000000   0.000000   0.000000   0.000000   0.000000
     6  H    0.000000   0.000000   0.000000   0.000000   0.000000   0.000000
     7  C    4.107708   0.000000   0.000000   0.000000   0.000000   0.000000
     8  H    0.000000   0.847346   0.000000   0.000000   0.000000   0.000000
     9  H    0.000000   0.000000   0.856626   0.000000   0.000000   0.000000
    10  C    0.000000   0.000000   0.000000   4.284905   0.000000   0.000000
    11  H    0.000000   0.000000   0.000000   0.000000   0.860142   0.000000
    12  H    0.000000   0.000000   0.000000   0.000000   0.000000   0.847942
    13  C    0.000000   0.000000   0.000000   0.000000   0.000000   0.000000
    14  H    0.000000   0.000000   0.000000   0.000000   0.000000   0.000000
    15  H    0.000000   0.000000   0.000000   0.000000   0.000000   0.000000
    16  C    0.000000   0.000000   0.000000   0.000000   0.000000   0.000000
    17  H    0.000000   0.000000   0.000000   0.000000   0.000000   0.000000
    18  H    0.000000   0.000000   0.000000   0.000000   0.000000   0.000000
    19  H    0.000000   0.000000   0.000000   0.000000   0.000000   0.000000
    20  C    0.000000   0.000000   0.000000   0.000000   0.000000   0.000000
    21  H    0.000000   0.000000   0.000000   0.000000   0.000000   0.000000
    22  H    0.000000   0.000000   0.000000   0.000000   0.000000   0.000000
    23  H    0.000000   0.000000   0.000000   0.000000   0.000000   0.000000
    24  N    0.000000   0.000000   0.000000   0.000000   0.000000   0.000000
    25  N    0.000000   0.000000   0.000000   0.000000   0.000000   0.000000
    26  Cl   0.000000   0.000000   0.000000   0.000000   0.000000   0.000000
             13         14         15         16         17         18
     1  C    0.000000   0.000000   0.000000   0.000000   0.000000   0.000000
     2  C    0.000000   0.000000   0.000000   0.000000   0.000000   0.000000
     3  C    0.000000   0.000000   0.000000   0.000000   0.000000   0.000000
     4  H    0.000000   0.000000   0.000000   0.000000   0.000000   0.000000
     5  H    0.000000   0.000000   0.000000   0.000000   0.000000   0.000000
     6  H    0.000000   0.000000   0.000000   0.000000   0.000000   0.000000
     7  C    0.000000   0.000000   0.000000   0.000000   0.000000   0.000000
     8  H    0.000000   0.000000   0.000000   0.000000   0.000000   0.000000
     9  H    0.000000   0.000000   0.000000   0.000000   0.000000   0.000000
    10  C    0.000000   0.000000   0.000000   0.000000   0.000000   0.000000
    11  H    0.000000   0.000000   0.000000   0.000000   0.000000   0.000000
    12  H    0.000000   0.000000   0.000000   0.000000   0.000000   0.000000
    13  C    4.219842   0.000000   0.000000   0.000000   0.000000   0.000000
    14  H    0.000000   0.869765   0.000000   0.000000   0.000000   0.000000
    15  H    0.000000   0.000000   0.870397   0.000000   0.000000   0.000000
    16  C    0.000000   0.000000   0.000000   4.462194   0.000000   0.000000
    17  H    0.000000   0.000000   0.000000   0.000000   0.850805   0.000000
    18  H    0.000000   0.000000   0.000000   0.000000   0.000000   0.852412
    19  H    0.000000   0.000000   0.000000   0.000000   0.000000   0.000000
    20  C    0.000000   0.000000   0.000000   0.000000   0.000000   0.000000
    21  H    0.000000   0.000000   0.000000   0.000000   0.000000   0.000000
    22  H    0.000000   0.000000   0.000000   0.000000   0.000000   0.000000
    23  H    0.000000   0.000000   0.000000   0.000000   0.000000   0.000000
    24  N    0.000000   0.000000   0.000000   0.000000   0.000000   0.000000
    25  N    0.000000   0.000000   0.000000   0.000000   0.000000   0.000000
    26  Cl   0.000000   0.000000   0.000000   0.000000   0.000000   0.000000
             19         20         21         22         23         24
     1  C    0.000000   0.000000   0.000000   0.000000   0.000000   0.000000
     2  C    0.000000   0.000000   0.000000   0.000000   0.000000   0.000000
     3  C    0.000000   0.000000   0.000000   0.000000   0.000000   0.000000
     4  H    0.000000   0.000000   0.000000   0.000000   0.000000   0.000000
     5  H    0.000000   0.000000   0.000000   0.000000   0.000000   0.000000
     6  H    0.000000   0.000000   0.000000   0.000000   0.000000   0.000000
     7  C    0.000000   0.000000   0.000000   0.000000   0.000000   0.000000
     8  H    0.000000   0.000000   0.000000   0.000000   0.000000   0.000000
     9  H    0.000000   0.000000   0.000000   0.000000   0.000000   0.000000
    10  C    0.000000   0.000000   0.000000   0.000000   0.000000   0.000000
    11  H    0.000000   0.000000   0.000000   0.000000   0.000000   0.000000
    12  H    0.000000   0.000000   0.000000   0.000000   0.000000   0.000000
    13  C    0.000000   0.000000   0.000000   0.000000   0.000000   0.000000
    14  H    0.000000   0.000000   0.000000   0.000000   0.000000   0.000000
    15  H    0.000000   0.000000   0.000000   0.000000   0.000000   0.000000
    16  C    0.000000   0.000000   0.000000   0.000000   0.000000   0.000000
    17  H    0.000000   0.000000   0.000000   0.000000   0.000000   0.000000
    18  H    0.000000   0.000000   0.000000   0.000000   0.000000   0.000000
    19  H    0.852053   0.000000   0.000000   0.000000   0.000000   0.000000
    20  C    0.000000   4.304501   0.000000   0.000000   0.000000   0.000000
    21  H    0.000000   0.000000   0.841901   0.000000   0.000000   0.000000
    22  H    0.000000   0.000000   0.000000   0.839281   0.000000   0.000000
    23  H    0.000000   0.000000   0.000000   0.000000   0.833867   0.000000
    24  N    0.000000   0.000000   0.000000   0.000000   0.000000   5.293220
    25  N    0.000000   0.000000   0.000000   0.000000   0.000000   0.000000
    26  Cl   0.000000   0.000000   0.000000   0.000000   0.000000   0.000000
             25         26
     1  C    0.000000   0.000000
     2  C    0.000000   0.000000
     3  C    0.000000   0.000000
     4  H    0.000000   0.000000
     5  H    0.000000   0.000000
     6  H    0.000000   0.000000
     7  C    0.000000   0.000000
     8  H    0.000000   0.000000
     9  H    0.000000   0.000000
    10  C    0.000000   0.000000
    11  H    0.000000   0.000000
    12  H    0.000000   0.000000
    13  C    0.000000   0.000000
    14  H    0.000000   0.000000
    15  H    0.000000   0.000000
    16  C    0.000000   0.000000
    17  H    0.000000   0.000000
    18  H    0.000000   0.000000
    19  H    0.000000   0.000000
    20  C    0.000000   0.000000
    21  H    0.000000   0.000000
    22  H    0.000000   0.000000
    23  H    0.000000   0.000000
    24  N    0.000000   0.000000
    25  N    5.252149   0.000000
    26  Cl   0.000000   7.436501
 Mulliken atomic charges:
              1
     1  C   -0.104042
     2  C    0.299533
     3  C   -0.129467
     4  H    0.166650
     5  H    0.175975
     6  H    0.174909
     7  C   -0.107708
     8  H    0.152654
     9  H    0.143374
    10  C   -0.284905
    11  H    0.139858
    12  H    0.152058
    13  C   -0.219842
    14  H    0.130235
    15  H    0.129603
    16  C   -0.462194
    17  H    0.149195
    18  H    0.147588
    19  H    0.147947
    20  C   -0.304501
    21  H    0.158099
    22  H    0.160719
    23  H    0.166133
    24  N   -0.293220
    25  N   -0.252149
    26  Cl  -0.436501
 Sum of Mulliken atomic charges =   0.00000
 Mulliken charges with hydrogens summed into heavy atoms:
              1
     1  C    0.070867
     2  C    0.466182
     3  C    0.046508
     7  C    0.188320
    10  C    0.007011
    13  C    0.039996
    16  C   -0.017465
    20  C    0.180450
    24  N   -0.293220
    25  N   -0.252149
    26  Cl  -0.436501
 Sum of Mulliken charges with hydrogens summed into heavy atoms =   0.00000
 Charge=              0.0000 electrons
 Dipole moment (field-independent basis, Debye):
    X=             -0.7029    Y=             -2.1741    Z=             -0.0152  Tot=              2.2849
 N-N= 3.780377120901D+02 E-N=-6.038935842135D+02  KE=-1.109838959699D+02
 1\1\GINC-D-173-250-154-13\FOpt\RPM6\ZDO\C8H15Cl1N2\JPFAENDT\02-Mar-201
 7\0\\# PM6 opt\\Title Card Required\\0,1\C,-11.8223360757,2.8922733069
 ,21.6730960495\C,-10.1785711953,4.4101971495,22.3127632562\C,-12.24014
 43022,4.1227106929,21.2687929038\H,-9.1325730199,4.6859360465,22.07301
 17483\H,-13.1495773723,4.4142153282,20.7743397009\H,-12.3107461303,1.9
 371638822,21.589124481\C,-10.057538551,2.0671615141,23.2881578833\H,-9
 .0956285186,2.4440866357,23.7073426609\H,-10.7886953621,2.0758901041,2
 4.1283816384\C,-9.8736258751,0.6484847114,22.7298315606\H,-10.83206174
 17,0.2593999549,22.3364358804\H,-9.185567799,0.6713926269,21.860638480
 4\C,-9.3290980337,-0.2938087478,23.8114782433\H,-8.3606762408,0.086805
 2352,24.1930775352\H,-10.0134662433,-0.3068792128,24.6830020128\C,-9.1
 485048491,-1.7125433219,23.2778180216\H,-8.4481040529,-1.7420174922,22
 .4349450706\H,-8.7543600376,-2.3792889609,24.0535952751\H,-10.09645287
 28,-2.1393649246,22.9306581576\C,-11.5804977395,6.4662952287,21.867164
 676\H,-12.1272258229,6.9232732425,21.0255661986\H,-12.2108279676,6.516
 4514938,22.7734727574\H,-10.6753480869,7.0691882327,22.0583818195\N,-1
 0.4835404008,2.9823242295,22.193623952\N,-11.1935291767,5.0877234284,2
 1.4976758555\Cl,-10.3102327823,4.9615731562,24.1486253408\\Version=IA3
 2M-G09RevA.02\State=1-A\HF=-0.0132042\RMSD=3.332e-09\RMSF=7.081e-06\Di
 pole=-0.3570832,-0.5065973,-0.6511323\PG=C01 [X(C8H15Cl1N2)]\\@


 MICHAEL FARADAY, ASKED BY A POLITICIAN WHAT GOOD
 HIS ELECTRICAL DISCOVERIES WERE, REPLIED 
 "AT PRESENT I DO NOT KNOW, BUT ONE DAY YOU WILL BE
 ABLE TO TAX THEM."
 Job cpu time:  0 days  0 hours  1 minutes  9.2 seconds.
 File lengths (MBytes):  RWF=      9 Int=      0 D2E=      0 Chk=      3 Scr=      1
 Normal termination of Gaussian 09 at Thu Mar  2 15:30:46 2017.
