 Entering Gaussian System, Link 0=g09
 Input=Ethane_B3LYP_3-21G.com
 Output=Ethane_B3LYP_3-21G.log
 Initial command:
 /sw/contrib/gaussian/g09/E01/g09/l1.exe "/scr/Gau-10733.inp" -scrdir="/scr/"
 Entering Link 1 = /sw/contrib/gaussian/g09/E01/g09/l1.exe PID=     10734.
  
 Copyright (c) 1988,1990,1992,1993,1995,1998,2003,2009,2015,
            Gaussian, Inc.  All Rights Reserved.
  
 This is part of the Gaussian(R) 09 program.  It is based on
 the Gaussian(R) 03 system (copyright 2003, Gaussian, Inc.),
 the Gaussian(R) 98 system (copyright 1998, Gaussian, Inc.),
 the Gaussian(R) 94 system (copyright 1995, Gaussian, Inc.),
 the Gaussian 92(TM) system (copyright 1992, Gaussian, Inc.),
 the Gaussian 90(TM) system (copyright 1990, Gaussian, Inc.),
 the Gaussian 88(TM) system (copyright 1988, Gaussian, Inc.),
 the Gaussian 86(TM) system (copyright 1986, Carnegie Mellon
 University), and the Gaussian 82(TM) system (copyright 1983,
 Carnegie Mellon University). Gaussian is a federally registered
 trademark of Gaussian, Inc.
  
 This software contains proprietary and confidential information,
 including trade secrets, belonging to Gaussian, Inc.
  
 This software is provided under written license and may be
 used, copied, transmitted, or stored only in accord with that
 written license.
  
 The following legend is applicable only to US Government
 contracts under FAR:
  
                    RESTRICTED RIGHTS LEGEND
  
 Use, reproduction and disclosure by the US Government is
 subject to restrictions as set forth in subparagraphs (a)
 and (c) of the Commercial Computer Software - Restricted
 Rights clause in FAR 52.227-19.
  
 Gaussian, Inc.
 340 Quinnipiac St., Bldg. 40, Wallingford CT 06492
  
  
 ---------------------------------------------------------------
 Warning -- This program may not be used in any manner that
 competes with the business of Gaussian, Inc. or will provide
 assistance to any competitor of Gaussian, Inc.  The licensee
 of this program is prohibited from giving any competitor of
 Gaussian, Inc. access to this program.  By using this program,
 the user acknowledges that Gaussian, Inc. is engaged in the
 business of creating and licensing software in the field of
 computational chemistry and represents and warrants to the
 licensee that it is not a competitor of Gaussian, Inc. and that
 it will not use this program in any manner prohibited above.
 ---------------------------------------------------------------
  

 Cite this work as:
 Gaussian 09, Revision E.01,
 M. J. Frisch, G. W. Trucks, H. B. Schlegel, G. E. Scuseria, 
 M. A. Robb, J. R. Cheeseman, G. Scalmani, V. Barone, B. Mennucci, 
 G. A. Petersson, H. Nakatsuji, M. Caricato, X. Li, H. P. Hratchian, 
 A. F. Izmaylov, J. Bloino, G. Zheng, J. L. Sonnenberg, M. Hada, 
 M. Ehara, K. Toyota, R. Fukuda, J. Hasegawa, M. Ishida, T. Nakajima, 
 Y. Honda, O. Kitao, H. Nakai, T. Vreven, J. A. Montgomery, Jr., 
 J. E. Peralta, F. Ogliaro, M. Bearpark, J. J. Heyd, E. Brothers, 
 K. N. Kudin, V. N. Staroverov, T. Keith, R. Kobayashi, J. Normand, 
 K. Raghavachari, A. Rendell, J. C. Burant, S. S. Iyengar, J. Tomasi, 
 M. Cossi, N. Rega, J. M. Millam, M. Klene, J. E. Knox, J. B. Cross, 
 V. Bakken, C. Adamo, J. Jaramillo, R. Gomperts, R. E. Stratmann, 
 O. Yazyev, A. J. Austin, R. Cammi, C. Pomelli, J. W. Ochterski, 
 R. L. Martin, K. Morokuma, V. G. Zakrzewski, G. A. Voth, 
 P. Salvador, J. J. Dannenberg, S. Dapprich, A. D. Daniels, 
 O. Farkas, J. B. Foresman, J. V. Ortiz, J. Cioslowski, 
 and D. J. Fox, Gaussian, Inc., Wallingford CT, 2013.
 
 ******************************************
 Gaussian 09:  ES64L-G09RevE.01 30-Nov-2015
                21-Feb-2017 
 ******************************************
 %NProcShared=8
 Will use up to    8 processors via shared memory.
 ---------------------
 #n B3LYP/6-31G(d) Opt
 ---------------------
 1/14=-1,18=20,19=15,26=3,38=1/1,3;
 2/9=110,12=2,17=6,18=5,40=1/2;
 3/5=1,6=6,7=1,11=2,16=1,25=1,30=1,71=1,74=-5/1,2,3;
 4//1;
 5/5=2,38=5/2;
 6/7=2,8=2,9=2,10=2,28=1/1;
 7//1,2,3,16;
 1/14=-1,18=20,19=15,26=3/3(2);
 2/9=110/2;
 99//99;
 2/9=110/2;
 3/5=1,6=6,7=1,11=2,16=1,25=1,30=1,71=1,74=-5/1,2,3;
 4/5=5,16=3,69=1/1;
 5/5=2,38=5/2;
 7//1,2,3,16;
 1/14=-1,18=20,19=15,26=3/3(-5);
 2/9=110/2;
 6/7=2,8=2,9=2,10=2,19=2,28=1/1;
 99/9=1/99;
 ------------------
 Ethane B3LYP 3-21G
 ------------------
 Symbolic Z-matrix:
 Charge =  0 Multiplicity = 1
 C                    -7.00418   4.59128   0. 
 C                    -5.51793   4.27681   0. 
 H                    -7.58097   3.68442   0.27908 
 H                    -7.31845   4.92518  -1.01129 
 H                    -7.21839   5.39808   0.73221 
 H                    -5.30372   3.47     -0.73221 
 H                    -5.20367   3.94291   1.01129 
 H                    -4.94114   5.18367  -0.27908 
 

 GradGradGradGradGradGradGradGradGradGradGradGradGradGradGradGradGradGrad
 Berny optimization.
 Initialization pass.
                           ----------------------------
                           !    Initial Parameters    !
                           ! (Angstroms and Degrees)  !
 --------------------------                            --------------------------
 ! Name  Definition              Value          Derivative Info.                !
 --------------------------------------------------------------------------------
 ! R1    R(1,2)                  1.5192         estimate D2E/DX2                !
 ! R2    R(1,3)                  1.1104         estimate D2E/DX2                !
 ! R3    R(1,4)                  1.1104         estimate D2E/DX2                !
 ! R4    R(1,5)                  1.1104         estimate D2E/DX2                !
 ! R5    R(2,6)                  1.1104         estimate D2E/DX2                !
 ! R6    R(2,7)                  1.1104         estimate D2E/DX2                !
 ! R7    R(2,8)                  1.1104         estimate D2E/DX2                !
 ! A1    A(2,1,3)              109.8243         estimate D2E/DX2                !
 ! A2    A(2,1,4)              109.8247         estimate D2E/DX2                !
 ! A3    A(2,1,5)              109.8248         estimate D2E/DX2                !
 ! A4    A(3,1,4)              109.1155         estimate D2E/DX2                !
 ! A5    A(3,1,5)              109.1153         estimate D2E/DX2                !
 ! A6    A(4,1,5)              109.1158         estimate D2E/DX2                !
 ! A7    A(1,2,6)              109.8248         estimate D2E/DX2                !
 ! A8    A(1,2,7)              109.8242         estimate D2E/DX2                !
 ! A9    A(1,2,8)              109.8243         estimate D2E/DX2                !
 ! A10   A(6,2,7)              109.1157         estimate D2E/DX2                !
 ! A11   A(6,2,8)              109.1156         estimate D2E/DX2                !
 ! A12   A(7,2,8)              109.1158         estimate D2E/DX2                !
 ! D1    D(3,1,2,6)             60.0            estimate D2E/DX2                !
 ! D2    D(3,1,2,7)            -60.0001         estimate D2E/DX2                !
 ! D3    D(3,1,2,8)            180.0            estimate D2E/DX2                !
 ! D4    D(4,1,2,6)            -59.9998         estimate D2E/DX2                !
 ! D5    D(4,1,2,7)           -179.9999         estimate D2E/DX2                !
 ! D6    D(4,1,2,8)             60.0002         estimate D2E/DX2                !
 ! D7    D(5,1,2,6)            179.9996         estimate D2E/DX2                !
 ! D8    D(5,1,2,7)             59.9995         estimate D2E/DX2                !
 ! D9    D(5,1,2,8)            -60.0004         estimate D2E/DX2                !
 --------------------------------------------------------------------------------
 Trust Radius=3.00D-01 FncErr=1.00D-07 GrdErr=1.00D-06
 Number of steps in this run=     38 maximum allowed number of steps=    100.
 GradGradGradGradGradGradGradGradGradGradGradGradGradGradGradGradGradGrad

                          Input orientation:                          
 ---------------------------------------------------------------------
 Center     Atomic      Atomic             Coordinates (Angstroms)
 Number     Number       Type             X           Y           Z
 ---------------------------------------------------------------------
      1          6           0       -7.004180    4.591280    0.000000
      2          6           0       -5.517930    4.276810    0.000000
      3          1           0       -7.580970    3.684420    0.279080
      4          1           0       -7.318450    4.925180   -1.011290
      5          1           0       -7.218390    5.398080    0.732210
      6          1           0       -5.303720    3.470000   -0.732210
      7          1           0       -5.203670    3.942910    1.011290
      8          1           0       -4.941140    5.183670   -0.279080
 ---------------------------------------------------------------------
                    Distance matrix (angstroms):
                    1          2          3          4          5
     1  C    0.000000
     2  C    1.519155   0.000000
     3  H    1.110391   2.164474   0.000000
     4  H    1.110388   2.164478   1.809270   0.000000
     5  H    1.110380   2.164473   1.809260   1.809265   0.000000
     6  H    2.164478   1.110387   2.500910   2.500914   3.086743
     7  H    2.164469   1.110386   2.500901   3.086742   2.500900
     8  H    2.164474   1.110391   3.086745   2.500910   2.500909
                    6          7          8
     6  H    0.000000
     7  H    1.809267   0.000000
     8  H    1.809269   1.809271   0.000000
 This structure is nearly, but not quite of a higher symmetry.
 Consider Symm=Loose if the higher symmetry is desired.
 Stoichiometry    C2H6
 Framework group  C1[X(C2H6)]
 Deg. of freedom    18
 Full point group                 C1      NOp   1
 Largest Abelian subgroup         C1      NOp   1
 Largest concise Abelian subgroup C1      NOp   1
                         Standard orientation:                         
 ---------------------------------------------------------------------
 Center     Atomic      Atomic             Coordinates (Angstroms)
 Number     Number       Type             X           Y           Z
 ---------------------------------------------------------------------
      1          6           0       -0.514740    0.274720   -0.486342
      2          6           0        0.514740   -0.274720    0.486343
      3          1           0       -0.332732   -0.138757   -1.500677
      4          1           0       -0.441553    1.381966   -0.526503
      5          1           0       -1.535509   -0.010456   -0.155207
      6          1           0        1.535515    0.010453    0.155203
      7          1           0        0.441548   -1.381963    0.526497
      8          1           0        0.332732    0.138757    1.500679
 ---------------------------------------------------------------------
 Rotational constants (GHZ):     76.5943541     20.2542751     20.2542542
 Standard basis: 6-31G(d) (6D, 7F)
 There are    42 symmetry adapted cartesian basis functions of A   symmetry.
 There are    42 symmetry adapted basis functions of A   symmetry.
    42 basis functions,    80 primitive gaussians,    42 cartesian basis functions
     9 alpha electrons        9 beta electrons
       nuclear repulsion energy        42.0367908403 Hartrees.
 NAtoms=    8 NActive=    8 NUniq=    8 SFac= 1.00D+00 NAtFMM=   60 NAOKFM=F Big=F
 Integral buffers will be    131072 words long.
 Raffenetti 2 integral format.
 Two-electron integral symmetry is turned on.
 One-electron integrals computed using PRISM.
 NBasis=    42 RedAO= T EigKep=  8.15D-03  NBF=    42
 NBsUse=    42 1.00D-06 EigRej= -1.00D+00 NBFU=    42
 ExpMin= 1.61D-01 ExpMax= 3.05D+03 ExpMxC= 4.57D+02 IAcc=1 IRadAn=         1 AccDes= 0.00D+00
 Harris functional with IExCor=  402 and IRadAn=       1 diagonalized for initial guess.
 HarFok:  IExCor=  402 AccDes= 0.00D+00 IRadAn=         1 IDoV= 1 UseB2=F ITyADJ=14
 ICtDFT=  3500011 ScaDFX=  1.000000  1.000000  1.000000  1.000000
 FoFCou: FMM=F IPFlag=           0 FMFlag=      100000 FMFlg1=           0
         NFxFlg=           0 DoJE=T BraDBF=F KetDBF=T FulRan=T
         wScrn=  0.000000 ICntrl=     500 IOpCl=  0 I1Cent=   200000004 NGrid=           0
         NMat0=    1 NMatS0=      1 NMatT0=    0 NMatD0=    1 NMtDS0=    0 NMtDT0=    0
 Petite list used in FoFCou.
 Keep R1 ints in memory in canonical form, NReq=1293534.
 Requested convergence on RMS density matrix=1.00D-08 within 128 cycles.
 Requested convergence on MAX density matrix=1.00D-06.
 Requested convergence on             energy=1.00D-06.
 No special actions if energy rises.
 Integral accuracy reduced to 1.0D-05 until final iterations.
 Initial convergence to 1.0D-05 achieved.  Increase integral accuracy.
 SCF Done:  E(RB3LYP) =  -79.8288035927     A.U. after   10 cycles
            NFock= 10  Conv=0.85D-09     -V/T= 2.0118

 **********************************************************************

            Population analysis using the SCF density.

 **********************************************************************

 Orbital symmetries:
       Occupied  (A) (A) (A) (A) (A) (A) (A) (A) (A)
       Virtual   (A) (A) (A) (A) (A) (A) (A) (A) (A) (A) (A) (A)
                 (A) (A) (A) (A) (A) (A) (A) (A) (A) (A) (A) (A)
                 (A) (A) (A) (A) (A) (A) (A) (A) (A)
 The electronic state is 1-A.
 Alpha  occ. eigenvalues --  -10.17570 -10.17547  -0.74877  -0.60284  -0.43251
 Alpha  occ. eigenvalues --   -0.43251  -0.35729  -0.33810  -0.33810
 Alpha virt. eigenvalues --    0.09892   0.15716   0.15963   0.15963   0.18457
 Alpha virt. eigenvalues --    0.18457   0.24121   0.50734   0.55636   0.55637
 Alpha virt. eigenvalues --    0.63097   0.63097   0.67211   0.87100   0.87100
 Alpha virt. eigenvalues --    0.88051   0.91711   0.91711   0.96487   1.06585
 Alpha virt. eigenvalues --    1.44022   1.51769   1.51770   1.94840   2.00310
 Alpha virt. eigenvalues --    2.00311   2.26072   2.26072   2.30011   2.30012
 Alpha virt. eigenvalues --    2.59623   4.14228   4.36013
          Condensed to atoms (all electrons):
               1          2          3          4          5          6
     1  C    5.021112   0.372325   0.381045   0.381046   0.381046  -0.037469
     2  C    0.372325   5.021112  -0.037470  -0.037469  -0.037469   0.381045
     3  H    0.381045  -0.037470   0.577994  -0.029997  -0.029998  -0.003986
     4  H    0.381046  -0.037469  -0.029997   0.577992  -0.029998  -0.003986
     5  H    0.381046  -0.037469  -0.029998  -0.029998   0.577991   0.005011
     6  H   -0.037469   0.381045  -0.003986  -0.003986   0.005011   0.577993
     7  H   -0.037470   0.381046  -0.003986   0.005011  -0.003987  -0.029998
     8  H   -0.037470   0.381045   0.005011  -0.003986  -0.003986  -0.029997
               7          8
     1  C   -0.037470  -0.037470
     2  C    0.381046   0.381045
     3  H   -0.003986   0.005011
     4  H    0.005011  -0.003986
     5  H   -0.003987  -0.003986
     6  H   -0.029998  -0.029997
     7  H    0.577991  -0.029997
     8  H   -0.029997   0.577993
 Mulliken charges:
               1
     1  C   -0.424165
     2  C   -0.424164
     3  H    0.141387
     4  H    0.141388
     5  H    0.141389
     6  H    0.141388
     7  H    0.141389
     8  H    0.141387
 Sum of Mulliken charges =   0.00000
 Mulliken charges with hydrogens summed into heavy atoms:
               1
     1  C    0.000000
     2  C    0.000000
 Electronic spatial extent (au):  <R**2>=            109.2275
 Charge=              0.0000 electrons
 Dipole moment (field-independent basis, Debye):
    X=              0.0000    Y=              0.0000    Z=              0.0000  Tot=              0.0000
 Quadrupole moment (field-independent basis, Debye-Ang):
   XX=            -15.1284   YY=            -14.8042   ZZ=            -15.0798
   XY=              0.2420   XZ=             -0.4283   YZ=              0.2286
 Traceless Quadrupole moment (field-independent basis, Debye-Ang):
   XX=             -0.1243   YY=              0.1999   ZZ=             -0.0757
   XY=              0.2420   XZ=             -0.4283   YZ=              0.2286
 Octapole moment (field-independent basis, Debye-Ang**2):
  XXX=              0.0000  YYY=              0.0000  ZZZ=              0.0000  XYY=              0.0000
  XXY=              0.0000  XXZ=              0.0000  XZZ=              0.0000  YZZ=              0.0000
  YYZ=              0.0000  XYZ=              0.0000
 Hexadecapole moment (field-independent basis, Debye-Ang**3):
 XXXX=            -55.2529 YYYY=            -35.3441 ZZZZ=            -52.5038 XXXY=              8.2265
 XXXZ=            -13.8738 YYYX=              6.9231 YYYZ=              6.1684 ZZZX=            -13.2101
 ZZZY=              8.2326 XXYY=            -16.5932 XXZZ=            -19.6471 YYZZ=            -15.7750
 XXYZ=              2.3674 YYXZ=             -4.3347 ZZXY=              2.5977
 N-N= 4.203679084033D+01 E-N=-2.678229177000D+02  KE= 7.889683901094D+01
 Calling FoFJK, ICntrl=      2127 FMM=F ISym2X=0 I1Cent= 0 IOpClX= 0 NMat=1 NMatS=1 NMatT=0.
 ***** Axes restored to original set *****
 -------------------------------------------------------------------
 Center     Atomic                   Forces (Hartrees/Bohr)
 Number     Number              X              Y              Z
 -------------------------------------------------------------------
      1        6          -0.007573890    0.001596000    0.000000876
      2        6           0.007573015   -0.001598892   -0.000004732
      3        1           0.001012268    0.009822742   -0.002727534
      4        1          -0.001550928   -0.002278497    0.009862758
      5        1          -0.002529451   -0.006891035   -0.007137304
      6        1           0.002528838    0.006894565    0.007139787
      7        1           0.001552182    0.002278258   -0.009861375
      8        1          -0.001012035   -0.009823141    0.002727522
 -------------------------------------------------------------------
 Cartesian Forces:  Max     0.009862758 RMS     0.005587097

 GradGradGradGradGradGradGradGradGradGradGradGradGradGradGradGradGradGrad
 Berny optimization.
 FormGI is forming the generalized inverse of G from B-inverse, IUseBI=4.
 Internal  Forces:  Max     0.010877091 RMS     0.005626333
 Search for a local minimum.
 Step number   1 out of a maximum of   38
 All quantities printed in internal units (Hartrees-Bohrs-Radians)
 Mixed Optimization -- RFO/linear search
 Second derivative matrix not updated -- first step.
 ITU=  0
     Eigenvalues ---    0.00513   0.05835   0.05835   0.05835   0.05835
     Eigenvalues ---    0.16000   0.16000   0.16000   0.16000   0.16000
     Eigenvalues ---    0.16000   0.30448   0.32559   0.32559   0.32559
     Eigenvalues ---    0.32559   0.32559   0.32560
 RFO step:  Lambda=-3.50852079D-03 EMin= 5.12569913D-03
 Linear search not attempted -- first point.
 Iteration  1 RMS(Cart)=  0.03643430 RMS(Int)=  0.00066317
 Iteration  2 RMS(Cart)=  0.00063855 RMS(Int)=  0.00025502
 Iteration  3 RMS(Cart)=  0.00000033 RMS(Int)=  0.00025502
 Variable       Old X    -DE/DX   Delta X   Delta X   Delta X     New X
                                 (Linear)    (Quad)   (Total)
    R1        2.87079   0.01088   0.00000   0.03532   0.03532   2.90610
    R2        2.09833  -0.00923   0.00000  -0.02806  -0.02806   2.07028
    R3        2.09833  -0.00923   0.00000  -0.02804  -0.02804   2.07029
    R4        2.09831  -0.00922   0.00000  -0.02803  -0.02803   2.07028
    R5        2.09833  -0.00923   0.00000  -0.02804  -0.02804   2.07028
    R6        2.09832  -0.00923   0.00000  -0.02804  -0.02804   2.07029
    R7        2.09833  -0.00923   0.00000  -0.02806  -0.02806   2.07027
    A1        1.91680   0.00460   0.00000   0.02811   0.02771   1.94450
    A2        1.91680   0.00460   0.00000   0.02811   0.02771   1.94451
    A3        1.91680   0.00460   0.00000   0.02812   0.02772   1.94452
    A4        1.90442  -0.00466   0.00000  -0.02849  -0.02886   1.87556
    A5        1.90442  -0.00466   0.00000  -0.02847  -0.02885   1.87557
    A6        1.90443  -0.00466   0.00000  -0.02848  -0.02886   1.87557
    A7        1.91680   0.00460   0.00000   0.02812   0.02772   1.94452
    A8        1.91679   0.00460   0.00000   0.02812   0.02772   1.94451
    A9        1.91680   0.00460   0.00000   0.02811   0.02771   1.94450
   A10        1.90443  -0.00466   0.00000  -0.02848  -0.02885   1.87557
   A11        1.90443  -0.00466   0.00000  -0.02847  -0.02885   1.87557
   A12        1.90443  -0.00466   0.00000  -0.02849  -0.02887   1.87556
    D1        1.04720   0.00000   0.00000  -0.00001  -0.00001   1.04719
    D2       -1.04720   0.00000   0.00000  -0.00002  -0.00002  -1.04722
    D3        3.14159   0.00000   0.00000   0.00000   0.00000   3.14159
    D4       -1.04719   0.00000   0.00000   0.00001   0.00001  -1.04719
    D5       -3.14159   0.00000   0.00000   0.00000   0.00000  -3.14159
    D6        1.04720   0.00000   0.00000   0.00001   0.00001   1.04721
    D7        3.14159   0.00000   0.00000   0.00000   0.00000   3.14159
    D8        1.04719   0.00000   0.00000   0.00000   0.00000   1.04719
    D9       -1.04720   0.00000   0.00000   0.00001   0.00001  -1.04719
         Item               Value     Threshold  Converged?
 Maximum Force            0.010877     0.000450     NO 
 RMS     Force            0.005626     0.000300     NO 
 Maximum Displacement     0.067389     0.001800     NO 
 RMS     Displacement     0.036151     0.001200     NO 
 Predicted change in Energy=-1.781427D-03
 GradGradGradGradGradGradGradGradGradGradGradGradGradGradGradGradGradGrad

                          Input orientation:                          
 ---------------------------------------------------------------------
 Center     Atomic      Atomic             Coordinates (Angstroms)
 Number     Number       Type             X           Y           Z
 ---------------------------------------------------------------------
      1          6           0       -7.013323    4.593215    0.000002
      2          6           0       -5.508790    4.274873   -0.000002
      3          1           0       -7.608064    3.714438    0.272487
      4          1           0       -7.351746    4.925910   -0.987424
      5          1           0       -7.254050    5.387662    0.714934
      6          1           0       -5.268062    3.480424   -0.714932
      7          1           0       -5.170368    3.942178    0.987424
      8          1           0       -4.914048    5.153649   -0.272488
 ---------------------------------------------------------------------
                    Distance matrix (angstroms):
                    1          2          3          4          5
     1  C    0.000000
     2  C    1.537843   0.000000
     3  H    1.095542   2.189815   0.000000
     4  H    1.095549   2.189826   1.766561   0.000000
     5  H    1.095547   2.189833   1.766568   1.766573   0.000000
     6  H    2.189833   1.095547   2.550562   2.550572   3.102616
     7  H    2.189825   1.095549   2.550561   3.102606   2.550571
     8  H    2.189815   1.095542   3.102587   2.550562   2.550564
                    6          7          8
     6  H    0.000000
     7  H    1.766572   0.000000
     8  H    1.766568   1.766562   0.000000
 Stoichiometry    C2H6
 Framework group  C1[X(C2H6)]
 Deg. of freedom    18
 Full point group                 C1      NOp   1
 Largest Abelian subgroup         C1      NOp   1
 Largest concise Abelian subgroup C1      NOp   1
                         Standard orientation:                         
 ---------------------------------------------------------------------
 Center     Atomic      Atomic             Coordinates (Angstroms)
 Number     Number       Type             X           Y           Z
 ---------------------------------------------------------------------
      1          6           0       -0.768922   -0.000001   -0.000001
      2          6           0        0.768922    0.000001    0.000001
      3          1           0       -1.168869    0.310633   -0.971475
      4          1           0       -1.168883    0.686017    0.754742
      5          1           0       -1.168891   -0.996635    0.216723
      6          1           0        1.168891    0.996634   -0.216725
      7          1           0        1.168882   -0.686017   -0.754742
      8          1           0        1.168870   -0.310632    0.971475
 ---------------------------------------------------------------------
 Rotational constants (GHZ):     80.3418121     19.7438592     19.7438221
 Standard basis: 6-31G(d) (6D, 7F)
 There are    42 symmetry adapted cartesian basis functions of A   symmetry.
 There are    42 symmetry adapted basis functions of A   symmetry.
    42 basis functions,    80 primitive gaussians,    42 cartesian basis functions
     9 alpha electrons        9 beta electrons
       nuclear repulsion energy        42.0299931226 Hartrees.
 NAtoms=    8 NActive=    8 NUniq=    8 SFac= 1.00D+00 NAtFMM=   60 NAOKFM=F Big=F
 Integral buffers will be    131072 words long.
 Raffenetti 2 integral format.
 Two-electron integral symmetry is turned on.
 One-electron integrals computed using PRISM.
 NBasis=    42 RedAO= T EigKep=  8.62D-03  NBF=    42
 NBsUse=    42 1.00D-06 EigRej= -1.00D+00 NBFU=    42
 Initial guess from the checkpoint file:  "/scr/Gau-10734.chk"
 B after Tr=     0.000000    0.000000    0.000000
         Rot=    0.850442   -0.339975   -0.251277   -0.313091 Ang= -63.48 deg.
 ExpMin= 1.61D-01 ExpMax= 3.05D+03 ExpMxC= 4.57D+02 IAcc=1 IRadAn=         1 AccDes= 0.00D+00
 Harris functional with IExCor=  402 and IRadAn=       1 diagonalized for initial guess.
 HarFok:  IExCor=  402 AccDes= 0.00D+00 IRadAn=         1 IDoV= 1 UseB2=F ITyADJ=14
 ICtDFT=  3500011 ScaDFX=  1.000000  1.000000  1.000000  1.000000
 FoFCou: FMM=F IPFlag=           0 FMFlag=      100000 FMFlg1=           0
         NFxFlg=           0 DoJE=T BraDBF=F KetDBF=T FulRan=T
         wScrn=  0.000000 ICntrl=     500 IOpCl=  0 I1Cent=   200000004 NGrid=           0
         NMat0=    1 NMatS0=      1 NMatT0=    0 NMatD0=    1 NMtDS0=    0 NMtDT0=    0
 Petite list used in FoFCou.
 Keep R1 ints in memory in canonical form, NReq=1293534.
 Requested convergence on RMS density matrix=1.00D-08 within 128 cycles.
 Requested convergence on MAX density matrix=1.00D-06.
 Requested convergence on             energy=1.00D-06.
 No special actions if energy rises.
 Integral accuracy reduced to 1.0D-05 until final iterations.
 Initial convergence to 1.0D-05 achieved.  Increase integral accuracy.
 SCF Done:  E(RB3LYP) =  -79.8303910343     A.U. after   10 cycles
            NFock= 10  Conv=0.13D-08     -V/T= 2.0109
 Calling FoFJK, ICntrl=      2127 FMM=F ISym2X=0 I1Cent= 0 IOpClX= 0 NMat=1 NMatS=1 NMatT=0.
 ***** Axes restored to original set *****
 -------------------------------------------------------------------
 Center     Atomic                   Forces (Hartrees/Bohr)
 Number     Number              X              Y              Z
 -------------------------------------------------------------------
      1        6           0.003345382   -0.000715703   -0.000001561
      2        6          -0.003345626    0.000715377    0.000001569
      3        1           0.000129085   -0.000483338    0.000133896
      4        1           0.000251874    0.000066688   -0.000449242
      5        1           0.000308279    0.000278055    0.000320775
      6        1          -0.000308288   -0.000278022   -0.000320881
      7        1          -0.000251748   -0.000066538    0.000449280
      8        1          -0.000128958    0.000483480   -0.000133837
 -------------------------------------------------------------------
 Cartesian Forces:  Max     0.003345626 RMS     0.001021339

 GradGradGradGradGradGradGradGradGradGradGradGradGradGradGradGradGradGrad
 Berny optimization.
 Using GEDIIS/GDIIS optimizer.
 FormGI is forming the generalized inverse of G from B-inverse, IUseBI=4.
 Internal  Forces:  Max     0.004124074 RMS     0.000835318
 Search for a local minimum.
 Step number   2 out of a maximum of   38
 All quantities printed in internal units (Hartrees-Bohrs-Radians)
 Mixed Optimization -- En-DIIS/RFO-DIIS
 Update second derivatives using D2CorX and points    1    2
 DE= -1.59D-03 DEPred=-1.78D-03 R= 8.91D-01
 TightC=F SS=  1.41D+00  RLast= 1.25D-01 DXNew= 5.0454D-01 3.7435D-01
 Trust test= 8.91D-01 RLast= 1.25D-01 DXMaxT set to 3.74D-01
 ITU=  1  0
 Use linear search instead of GDIIS.
     Eigenvalues ---    0.00513   0.05547   0.05547   0.05547   0.05547
     Eigenvalues ---    0.16000   0.16000   0.16000   0.16000   0.16000
     Eigenvalues ---    0.16507   0.30521   0.32559   0.32559   0.32559
     Eigenvalues ---    0.32559   0.32560   0.35042
 RFO step:  Lambda=-3.06179627D-05 EMin= 5.12569913D-03
 Quartic linear search produced a step of -0.08718.
 Iteration  1 RMS(Cart)=  0.00469154 RMS(Int)=  0.00002019
 Iteration  2 RMS(Cart)=  0.00000276 RMS(Int)=  0.00002006
 Iteration  3 RMS(Cart)=  0.00000000 RMS(Int)=  0.00002006
 Variable       Old X    -DE/DX   Delta X   Delta X   Delta X     New X
                                 (Linear)    (Quad)   (Total)
    R1        2.90610  -0.00412  -0.00308  -0.00894  -0.01202   2.89409
    R2        2.07028   0.00035   0.00245  -0.00173   0.00071   2.07099
    R3        2.07029   0.00035   0.00244  -0.00174   0.00070   2.07099
    R4        2.07028   0.00034   0.00244  -0.00176   0.00068   2.07097
    R5        2.07028   0.00034   0.00244  -0.00176   0.00068   2.07097
    R6        2.07029   0.00035   0.00244  -0.00174   0.00070   2.07099
    R7        2.07027   0.00035   0.00245  -0.00173   0.00071   2.07099
    A1        1.94450  -0.00037  -0.00242   0.00060  -0.00179   1.94272
    A2        1.94451  -0.00037  -0.00242   0.00055  -0.00184   1.94267
    A3        1.94452  -0.00038  -0.00242   0.00048  -0.00191   1.94262
    A4        1.87556   0.00040   0.00252  -0.00056   0.00198   1.87755
    A5        1.87557   0.00040   0.00251  -0.00058   0.00196   1.87754
    A6        1.87557   0.00040   0.00252  -0.00059   0.00195   1.87753
    A7        1.94452  -0.00038  -0.00242   0.00048  -0.00190   1.94262
    A8        1.94451  -0.00037  -0.00242   0.00055  -0.00184   1.94267
    A9        1.94450  -0.00037  -0.00242   0.00060  -0.00179   1.94272
   A10        1.87557   0.00040   0.00252  -0.00059   0.00195   1.87753
   A11        1.87557   0.00040   0.00252  -0.00058   0.00196   1.87754
   A12        1.87556   0.00040   0.00252  -0.00056   0.00198   1.87755
    D1        1.04719   0.00000   0.00000   0.00001   0.00001   1.04720
    D2       -1.04722   0.00000   0.00000   0.00006   0.00006  -1.04715
    D3        3.14159   0.00000   0.00000   0.00000   0.00000   3.14159
    D4       -1.04719   0.00000   0.00000  -0.00006  -0.00006  -1.04724
    D5       -3.14159   0.00000   0.00000   0.00000   0.00000   3.14159
    D6        1.04721   0.00000   0.00000  -0.00006  -0.00006   1.04715
    D7        3.14159   0.00000   0.00000   0.00000   0.00000   3.14159
    D8        1.04719   0.00000   0.00000   0.00006   0.00006   1.04724
    D9       -1.04719   0.00000   0.00000  -0.00001  -0.00001  -1.04720
         Item               Value     Threshold  Converged?
 Maximum Force            0.004124     0.000450     NO 
 RMS     Force            0.000835     0.000300     NO 
 Maximum Displacement     0.009464     0.001800     NO 
 RMS     Displacement     0.004694     0.001200     NO 
 Predicted change in Energy=-2.996865D-05
 GradGradGradGradGradGradGradGradGradGradGradGradGradGradGradGradGradGrad

                          Input orientation:                          
 ---------------------------------------------------------------------
 Center     Atomic      Atomic             Coordinates (Angstroms)
 Number     Number       Type             X           Y           Z
 ---------------------------------------------------------------------
      1          6           0       -7.010218    4.592532   -0.000006
      2          6           0       -5.511895    4.275556    0.000006
      3          1           0       -7.603496    3.712391    0.272782
      4          1           0       -7.346874    4.925157   -0.988472
      5          1           0       -7.249042    5.387375    0.715677
      6          1           0       -5.273070    3.480712   -0.715677
      7          1           0       -5.175239    3.942931    0.988473
      8          1           0       -4.918616    5.155697   -0.272783
 ---------------------------------------------------------------------
                    Distance matrix (angstroms):
                    1          2          3          4          5
     1  C    0.000000
     2  C    1.531485   0.000000
     3  H    1.095920   2.183199   0.000000
     4  H    1.095920   2.183167   1.768451   0.000000
     5  H    1.095908   2.183119   1.768436   1.768429   0.000000
     6  H    2.183119   1.095908   2.541970   2.541947   3.096546
     7  H    2.183167   1.095920   2.542006   3.096623   2.541947
     8  H    2.183199   1.095920   3.096668   2.542006   2.541970
                    6          7          8
     6  H    0.000000
     7  H    1.768429   0.000000
     8  H    1.768436   1.768451   0.000000
 Stoichiometry    C2H6
 Framework group  C1[X(C2H6)]
 Deg. of freedom    18
 Full point group                 C1      NOp   1
 Largest Abelian subgroup         C1      NOp   1
 Largest concise Abelian subgroup C1      NOp   1
                         Standard orientation:                         
 ---------------------------------------------------------------------
 Center     Atomic      Atomic             Coordinates (Angstroms)
 Number     Number       Type             X           Y           Z
 ---------------------------------------------------------------------
      1          6           0       -0.765742    0.000000    0.000002
      2          6           0        0.765742    0.000000   -0.000002
      3          1           0       -1.164007   -0.949793   -0.374592
      4          1           0       -1.163963    0.799348   -0.635219
      5          1           0       -1.163898    0.150490    1.009873
      6          1           0        1.163898   -0.150491   -1.009873
      7          1           0        1.163963   -0.799348    0.635219
      8          1           0        1.164007    0.949793    0.374591
 ---------------------------------------------------------------------
 Rotational constants (GHZ):     80.1718719     19.8836231     19.8835501
 Standard basis: 6-31G(d) (6D, 7F)
 There are    42 symmetry adapted cartesian basis functions of A   symmetry.
 There are    42 symmetry adapted basis functions of A   symmetry.
    42 basis functions,    80 primitive gaussians,    42 cartesian basis functions
     9 alpha electrons        9 beta electrons
       nuclear repulsion energy        42.1053927177 Hartrees.
 NAtoms=    8 NActive=    8 NUniq=    8 SFac= 1.00D+00 NAtFMM=   60 NAOKFM=F Big=F
 Integral buffers will be    131072 words long.
 Raffenetti 2 integral format.
 Two-electron integral symmetry is turned on.
 One-electron integrals computed using PRISM.
 NBasis=    42 RedAO= T EigKep=  8.49D-03  NBF=    42
 NBsUse=    42 1.00D-06 EigRej= -1.00D+00 NBFU=    42
 Initial guess from the checkpoint file:  "/scr/Gau-10734.chk"
 B after Tr=     0.000000    0.000000    0.000000
         Rot=    0.730123    0.683315   -0.000013   -0.000002 Ang=  86.21 deg.
 Keep R1 ints in memory in canonical form, NReq=1293534.
 Requested convergence on RMS density matrix=1.00D-08 within 128 cycles.
 Requested convergence on MAX density matrix=1.00D-06.
 Requested convergence on             energy=1.00D-06.
 No special actions if energy rises.
 SCF Done:  E(RB3LYP) =  -79.8304187278     A.U. after    6 cycles
            NFock=  6  Conv=0.24D-08     -V/T= 2.0108
 Calling FoFJK, ICntrl=      2127 FMM=F ISym2X=0 I1Cent= 0 IOpClX= 0 NMat=1 NMatS=1 NMatT=0.
 ***** Axes restored to original set *****
 -------------------------------------------------------------------
 Center     Atomic                   Forces (Hartrees/Bohr)
 Number     Number              X              Y              Z
 -------------------------------------------------------------------
      1        6           0.000720401   -0.000148480    0.000002581
      2        6          -0.000720453    0.000148413   -0.000002558
      3        1          -0.000148918   -0.000065498    0.000031626
      4        1          -0.000115667    0.000051752   -0.000093505
      5        1          -0.000101779    0.000103370    0.000066943
      6        1           0.000101779   -0.000103375   -0.000066971
      7        1           0.000115690   -0.000051718    0.000093492
      8        1           0.000148946    0.000065537   -0.000031607
 -------------------------------------------------------------------
 Cartesian Forces:  Max     0.000720453 RMS     0.000227094

 GradGradGradGradGradGradGradGradGradGradGradGradGradGradGradGradGradGrad
 Berny optimization.
 Using GEDIIS/GDIIS optimizer.
 FormGI is forming the generalized inverse of G from B-inverse, IUseBI=4.
 Internal  Forces:  Max     0.000358553 RMS     0.000107438
 Search for a local minimum.
 Step number   3 out of a maximum of   38
 All quantities printed in internal units (Hartrees-Bohrs-Radians)
 Mixed Optimization -- En-DIIS/RFO-DIIS
 Swapping is turned off.
 Update second derivatives using D2CorX and points    1    2    3
 DE= -2.77D-05 DEPred=-3.00D-05 R= 9.24D-01
 TightC=F SS=  1.41D+00  RLast= 1.38D-02 DXNew= 6.2958D-01 4.1452D-02
 Trust test= 9.24D-01 RLast= 1.38D-02 DXMaxT set to 3.74D-01
 ITU=  1  1  0
     Eigenvalues ---    0.00513   0.05566   0.05566   0.05566   0.05566
     Eigenvalues ---    0.16000   0.16000   0.16000   0.16000   0.16000
     Eigenvalues ---    0.17121   0.30399   0.32018   0.32559   0.32559
     Eigenvalues ---    0.32559   0.32560   0.32561
 En-DIIS/RFO-DIIS IScMMF=        0 using points:     3    2
 RFO step:  Lambda=-6.63708562D-07.
 DidBck=F Rises=F RFO-DIIS coefs:    1.05359   -0.05359
 Iteration  1 RMS(Cart)=  0.00027327 RMS(Int)=  0.00000017
 Iteration  2 RMS(Cart)=  0.00000012 RMS(Int)=  0.00000014
 Variable       Old X    -DE/DX   Delta X   Delta X   Delta X     New X
                                 (Linear)    (Quad)   (Total)
    R1        2.89409  -0.00036  -0.00064  -0.00080  -0.00145   2.89264
    R2        2.07099   0.00014   0.00004   0.00041   0.00045   2.07144
    R3        2.07099   0.00014   0.00004   0.00039   0.00043   2.07142
    R4        2.07097   0.00014   0.00004   0.00040   0.00043   2.07140
    R5        2.07097   0.00014   0.00004   0.00040   0.00043   2.07140
    R6        2.07099   0.00014   0.00004   0.00039   0.00043   2.07142
    R7        2.07099   0.00014   0.00004   0.00041   0.00045   2.07144
    A1        1.94272   0.00008  -0.00010   0.00063   0.00053   1.94325
    A2        1.94267   0.00008  -0.00010   0.00059   0.00049   1.94316
    A3        1.94262   0.00008  -0.00010   0.00061   0.00050   1.94312
    A4        1.87755  -0.00008   0.00011  -0.00065  -0.00054   1.87700
    A5        1.87754  -0.00008   0.00011  -0.00063  -0.00052   1.87701
    A6        1.87753  -0.00008   0.00010  -0.00066  -0.00056   1.87697
    A7        1.94262   0.00008  -0.00010   0.00061   0.00050   1.94312
    A8        1.94267   0.00008  -0.00010   0.00059   0.00049   1.94316
    A9        1.94272   0.00008  -0.00010   0.00063   0.00053   1.94325
   A10        1.87753  -0.00008   0.00010  -0.00066  -0.00056   1.87697
   A11        1.87754  -0.00008   0.00011  -0.00063  -0.00052   1.87701
   A12        1.87755  -0.00008   0.00011  -0.00065  -0.00054   1.87700
    D1        1.04720   0.00000   0.00000  -0.00003  -0.00003   1.04716
    D2       -1.04715   0.00000   0.00000   0.00000   0.00000  -1.04715
    D3        3.14159   0.00000   0.00000   0.00000   0.00000   3.14159
    D4       -1.04724   0.00000   0.00000  -0.00003  -0.00003  -1.04728
    D5        3.14159   0.00000   0.00000   0.00000   0.00000   3.14159
    D6        1.04715   0.00000   0.00000   0.00000   0.00000   1.04715
    D7        3.14159   0.00000   0.00000   0.00000   0.00000   3.14159
    D8        1.04724   0.00000   0.00000   0.00003   0.00003   1.04728
    D9       -1.04720   0.00000   0.00000   0.00004   0.00003  -1.04717
         Item               Value     Threshold  Converged?
 Maximum Force            0.000359     0.000450     YES
 RMS     Force            0.000107     0.000300     YES
 Maximum Displacement     0.000705     0.001800     YES
 RMS     Displacement     0.000273     0.001200     YES
 Predicted change in Energy=-6.968710D-07
 Optimization completed.
    -- Stationary point found.
                           ----------------------------
                           !   Optimized Parameters   !
                           ! (Angstroms and Degrees)  !
 --------------------------                            --------------------------
 ! Name  Definition              Value          Derivative Info.                !
 --------------------------------------------------------------------------------
 ! R1    R(1,2)                  1.5315         -DE/DX =   -0.0004              !
 ! R2    R(1,3)                  1.0959         -DE/DX =    0.0001              !
 ! R3    R(1,4)                  1.0959         -DE/DX =    0.0001              !
 ! R4    R(1,5)                  1.0959         -DE/DX =    0.0001              !
 ! R5    R(2,6)                  1.0959         -DE/DX =    0.0001              !
 ! R6    R(2,7)                  1.0959         -DE/DX =    0.0001              !
 ! R7    R(2,8)                  1.0959         -DE/DX =    0.0001              !
 ! A1    A(2,1,3)              111.3095         -DE/DX =    0.0001              !
 ! A2    A(2,1,4)              111.307          -DE/DX =    0.0001              !
 ! A3    A(2,1,5)              111.3038         -DE/DX =    0.0001              !
 ! A4    A(3,1,4)              107.5754         -DE/DX =   -0.0001              !
 ! A5    A(3,1,5)              107.575          -DE/DX =   -0.0001              !
 ! A6    A(4,1,5)              107.5744         -DE/DX =   -0.0001              !
 ! A7    A(1,2,6)              111.3038         -DE/DX =    0.0001              !
 ! A8    A(1,2,7)              111.307          -DE/DX =    0.0001              !
 ! A9    A(1,2,8)              111.3095         -DE/DX =    0.0001              !
 ! A10   A(6,2,7)              107.5744         -DE/DX =   -0.0001              !
 ! A11   A(6,2,8)              107.575          -DE/DX =   -0.0001              !
 ! A12   A(7,2,8)              107.5755         -DE/DX =   -0.0001              !
 ! D1    D(3,1,2,6)             60.0            -DE/DX =    0.0                 !
 ! D2    D(3,1,2,7)            -59.9974         -DE/DX =    0.0                 !
 ! D3    D(3,1,2,8)            180.0            -DE/DX =    0.0                 !
 ! D4    D(4,1,2,6)            -60.0026         -DE/DX =    0.0                 !
 ! D5    D(4,1,2,7)            180.0            -DE/DX =    0.0                 !
 ! D6    D(4,1,2,8)             59.9973         -DE/DX =    0.0                 !
 ! D7    D(5,1,2,6)            180.0            -DE/DX =    0.0                 !
 ! D8    D(5,1,2,7)             60.0025         -DE/DX =    0.0                 !
 ! D9    D(5,1,2,8)            -60.0001         -DE/DX =    0.0                 !
 --------------------------------------------------------------------------------
 GradGradGradGradGradGradGradGradGradGradGradGradGradGradGradGradGradGrad

                          Input orientation:                          
 ---------------------------------------------------------------------
 Center     Atomic      Atomic             Coordinates (Angstroms)
 Number     Number       Type             X           Y           Z
 ---------------------------------------------------------------------
      1          6           0       -7.010218    4.592532   -0.000006
      2          6           0       -5.511895    4.275556    0.000006
      3          1           0       -7.603496    3.712391    0.272782
      4          1           0       -7.346874    4.925157   -0.988472
      5          1           0       -7.249042    5.387375    0.715677
      6          1           0       -5.273070    3.480712   -0.715677
      7          1           0       -5.175239    3.942931    0.988473
      8          1           0       -4.918616    5.155697   -0.272783
 ---------------------------------------------------------------------
                    Distance matrix (angstroms):
                    1          2          3          4          5
     1  C    0.000000
     2  C    1.531485   0.000000
     3  H    1.095920   2.183199   0.000000
     4  H    1.095920   2.183167   1.768451   0.000000
     5  H    1.095908   2.183119   1.768436   1.768429   0.000000
     6  H    2.183119   1.095908   2.541970   2.541947   3.096546
     7  H    2.183167   1.095920   2.542006   3.096623   2.541947
     8  H    2.183199   1.095920   3.096668   2.542006   2.541970
                    6          7          8
     6  H    0.000000
     7  H    1.768429   0.000000
     8  H    1.768436   1.768451   0.000000
 Stoichiometry    C2H6
 Framework group  C1[X(C2H6)]
 Deg. of freedom    18
 Full point group                 C1      NOp   1
 Largest Abelian subgroup         C1      NOp   1
 Largest concise Abelian subgroup C1      NOp   1
                         Standard orientation:                         
 ---------------------------------------------------------------------
 Center     Atomic      Atomic             Coordinates (Angstroms)
 Number     Number       Type             X           Y           Z
 ---------------------------------------------------------------------
      1          6           0       -0.765742    0.000000    0.000002
      2          6           0        0.765742    0.000000   -0.000002
      3          1           0       -1.164007   -0.949793   -0.374592
      4          1           0       -1.163963    0.799348   -0.635219
      5          1           0       -1.163898    0.150490    1.009873
      6          1           0        1.163898   -0.150491   -1.009873
      7          1           0        1.163963   -0.799348    0.635219
      8          1           0        1.164007    0.949793    0.374591
 ---------------------------------------------------------------------
 Rotational constants (GHZ):     80.1718719     19.8836231     19.8835501

 **********************************************************************

            Population analysis using the SCF density.

 **********************************************************************

 Orbital symmetries:
       Occupied  (A) (A) (A) (A) (A) (A) (A) (A) (A)
       Virtual   (A) (A) (A) (A) (A) (A) (A) (A) (A) (A) (A) (A)
                 (A) (A) (A) (A) (A) (A) (A) (A) (A) (A) (A) (A)
                 (A) (A) (A) (A) (A) (A) (A) (A) (A)
 The electronic state is 1-A.
 Alpha  occ. eigenvalues --  -10.17232 -10.17211  -0.74731  -0.61199  -0.43013
 Alpha  occ. eigenvalues --   -0.43013  -0.36248  -0.34023  -0.34022
 Alpha virt. eigenvalues --    0.10477   0.15614   0.16388   0.16389   0.19019
 Alpha virt. eigenvalues --    0.19020   0.24213   0.51333   0.54372   0.54373
 Alpha virt. eigenvalues --    0.63656   0.63659   0.66804   0.88331   0.88332
 Alpha virt. eigenvalues --    0.90646   0.91987   0.91987   0.97958   1.06606
 Alpha virt. eigenvalues --    1.43932   1.52607   1.52610   1.93173   1.98145
 Alpha virt. eigenvalues --    1.98152   2.27095   2.27100   2.33233   2.33237
 Alpha virt. eigenvalues --    2.58690   4.14483   4.36600
          Condensed to atoms (all electrons):
               1          2          3          4          5          6
     1  C    5.012204   0.375996   0.382804   0.382803   0.382804  -0.034562
     2  C    0.375996   5.012204  -0.034553  -0.034556  -0.034562   0.382804
     3  H    0.382804  -0.034553   0.574706  -0.032333  -0.032333  -0.003621
     4  H    0.382803  -0.034556  -0.032333   0.574713  -0.032333  -0.003621
     5  H    0.382804  -0.034562  -0.032333  -0.032333   0.574713   0.004638
     6  H   -0.034562   0.382804  -0.003621  -0.003621   0.004638   0.574713
     7  H   -0.034556   0.382803  -0.003621   0.004638  -0.003621  -0.032333
     8  H   -0.034553   0.382804   0.004637  -0.003621  -0.003621  -0.032333
               7          8
     1  C   -0.034556  -0.034553
     2  C    0.382803   0.382804
     3  H   -0.003621   0.004637
     4  H    0.004638  -0.003621
     5  H   -0.003621  -0.003621
     6  H   -0.032333  -0.032333
     7  H    0.574713  -0.032333
     8  H   -0.032333   0.574706
 Mulliken charges:
               1
     1  C   -0.432939
     2  C   -0.432939
     3  H    0.144314
     4  H    0.144311
     5  H    0.144314
     6  H    0.144314
     7  H    0.144311
     8  H    0.144314
 Sum of Mulliken charges =   0.00000
 Mulliken charges with hydrogens summed into heavy atoms:
               1
     1  C    0.000000
     2  C    0.000000
 Electronic spatial extent (au):  <R**2>=            109.6937
 Charge=              0.0000 electrons
 Dipole moment (field-independent basis, Debye):
    X=              0.0000    Y=              0.0000    Z=              0.0000  Tot=              0.0000
 Quadrupole moment (field-independent basis, Debye-Ang):
   XX=            -15.2356   YY=            -14.7111   ZZ=            -14.7112
   XY=              0.0001   XZ=              0.0001   YZ=              0.0000
 Traceless Quadrupole moment (field-independent basis, Debye-Ang):
   XX=             -0.3497   YY=              0.1749   ZZ=              0.1748
   XY=              0.0001   XZ=              0.0001   YZ=              0.0000
 Octapole moment (field-independent basis, Debye-Ang**2):
  XXX=              0.0000  YYY=              0.0000  ZZZ=              0.0000  XYY=              0.0000
  XXY=              0.0000  XXZ=              0.0000  XZZ=              0.0000  YZZ=              0.0000
  YYZ=              0.0000  XYZ=              0.0000
 Hexadecapole moment (field-independent basis, Debye-Ang**3):
 XXXX=            -92.7609 YYYY=            -28.6529 ZZZZ=            -28.6525 XXXY=              0.0004
 XXXZ=              0.0005 YYYX=              0.5148 YYYZ=              0.0000 ZZZX=             -1.0827
 ZZZY=              0.0001 XXYY=            -19.1616 XXZZ=            -19.1621 YYZZ=             -9.5509
 XXYZ=              0.0001 YYXZ=              1.0827 ZZXY=             -0.5147
 N-N= 4.210539271769D+01 E-N=-2.680174998435D+02  KE= 7.897559173785D+01
 1\1\GINC-N0287\FOpt\RB3LYP\6-31G(d)\C2H6\GDAVIDS3\21-Feb-2017\0\\#n B3
 LYP/6-31G(d) Opt\\Ethane B3LYP 3-21G\\0,1\C,-7.0102177029,4.5925321052
 ,-0.0000063794\C,-5.5118947161,4.2755555385,0.0000063556\H,-7.60349619
 07,3.7123906761,0.2727818193\H,-7.3468735979,4.9251568816,-0.988472475
 3\H,-7.2490421602,5.3873746684,0.7156770748\H,-5.273070421,3.480712450
 4,-0.7156765292\H,-5.1752390359,3.9429310521,0.9884726465\H,-4.9186161
 754,5.1556966278,-0.2727825124\\Version=ES64L-G09RevE.01\State=1-A\HF=
 -79.8304187\RMSD=2.385e-09\RMSF=2.271e-04\Dipole=0.,0.,0.\Quadrupole=-
 0.2432214,0.1132596,0.1299618,0.0790605,0.000013,-0.0000392\PG=C01 [X(
 C2H6)]\\@


 THE ATTENTION SPAN OF A COMPUTER IS AS LONG
 AS ITS EXTENSION CORD.
 Job cpu time:       0 days  0 hours  1 minutes  4.0 seconds.
 File lengths (MBytes):  RWF=      5 Int=      0 D2E=      0 Chk=      1 Scr=      1
 Normal termination of Gaussian 09 at Tue Feb 21 18:45:18 2017.
