 Entering Gaussian System, Link 0=g09
 Input=Ethane_B3LYP_STO3G.com
 Output=Ethane_B3LYP_STO3G.log
 Initial command:
 /sw/contrib/gaussian/g09/E01/g09/l1.exe "/scr/Gau-18549.inp" -scrdir="/scr/"
 Entering Link 1 = /sw/contrib/gaussian/g09/E01/g09/l1.exe PID=     18550.
  
 Copyright (c) 1988,1990,1992,1993,1995,1998,2003,2009,2015,
            Gaussian, Inc.  All Rights Reserved.
  
 This is part of the Gaussian(R) 09 program.  It is based on
 the Gaussian(R) 03 system (copyright 2003, Gaussian, Inc.),
 the Gaussian(R) 98 system (copyright 1998, Gaussian, Inc.),
 the Gaussian(R) 94 system (copyright 1995, Gaussian, Inc.),
 the Gaussian 92(TM) system (copyright 1992, Gaussian, Inc.),
 the Gaussian 90(TM) system (copyright 1990, Gaussian, Inc.),
 the Gaussian 88(TM) system (copyright 1988, Gaussian, Inc.),
 the Gaussian 86(TM) system (copyright 1986, Carnegie Mellon
 University), and the Gaussian 82(TM) system (copyright 1983,
 Carnegie Mellon University). Gaussian is a federally registered
 trademark of Gaussian, Inc.
  
 This software contains proprietary and confidential information,
 including trade secrets, belonging to Gaussian, Inc.
  
 This software is provided under written license and may be
 used, copied, transmitted, or stored only in accord with that
 written license.
  
 The following legend is applicable only to US Government
 contracts under FAR:
  
                    RESTRICTED RIGHTS LEGEND
  
 Use, reproduction and disclosure by the US Government is
 subject to restrictions as set forth in subparagraphs (a)
 and (c) of the Commercial Computer Software - Restricted
 Rights clause in FAR 52.227-19.
  
 Gaussian, Inc.
 340 Quinnipiac St., Bldg. 40, Wallingford CT 06492
  
  
 ---------------------------------------------------------------
 Warning -- This program may not be used in any manner that
 competes with the business of Gaussian, Inc. or will provide
 assistance to any competitor of Gaussian, Inc.  The licensee
 of this program is prohibited from giving any competitor of
 Gaussian, Inc. access to this program.  By using this program,
 the user acknowledges that Gaussian, Inc. is engaged in the
 business of creating and licensing software in the field of
 computational chemistry and represents and warrants to the
 licensee that it is not a competitor of Gaussian, Inc. and that
 it will not use this program in any manner prohibited above.
 ---------------------------------------------------------------
  

 Cite this work as:
 Gaussian 09, Revision E.01,
 M. J. Frisch, G. W. Trucks, H. B. Schlegel, G. E. Scuseria, 
 M. A. Robb, J. R. Cheeseman, G. Scalmani, V. Barone, B. Mennucci, 
 G. A. Petersson, H. Nakatsuji, M. Caricato, X. Li, H. P. Hratchian, 
 A. F. Izmaylov, J. Bloino, G. Zheng, J. L. Sonnenberg, M. Hada, 
 M. Ehara, K. Toyota, R. Fukuda, J. Hasegawa, M. Ishida, T. Nakajima, 
 Y. Honda, O. Kitao, H. Nakai, T. Vreven, J. A. Montgomery, Jr., 
 J. E. Peralta, F. Ogliaro, M. Bearpark, J. J. Heyd, E. Brothers, 
 K. N. Kudin, V. N. Staroverov, T. Keith, R. Kobayashi, J. Normand, 
 K. Raghavachari, A. Rendell, J. C. Burant, S. S. Iyengar, J. Tomasi, 
 M. Cossi, N. Rega, J. M. Millam, M. Klene, J. E. Knox, J. B. Cross, 
 V. Bakken, C. Adamo, J. Jaramillo, R. Gomperts, R. E. Stratmann, 
 O. Yazyev, A. J. Austin, R. Cammi, C. Pomelli, J. W. Ochterski, 
 R. L. Martin, K. Morokuma, V. G. Zakrzewski, G. A. Voth, 
 P. Salvador, J. J. Dannenberg, S. Dapprich, A. D. Daniels, 
 O. Farkas, J. B. Foresman, J. V. Ortiz, J. Cioslowski, 
 and D. J. Fox, Gaussian, Inc., Wallingford CT, 2013.
 
 ******************************************
 Gaussian 09:  ES64L-G09RevE.01 30-Nov-2015
                21-Feb-2017 
 ******************************************
 %NProcShared=8
 Will use up to    8 processors via shared memory.
 -------------------
 #n B3LYP/STO-3G Opt
 -------------------
 1/14=-1,18=20,19=15,26=3,38=1/1,3;
 2/9=110,12=2,17=6,18=5,40=1/2;
 3/6=3,11=2,16=1,25=1,30=1,71=1,74=-5/1,2,3;
 4//1;
 5/5=2,38=5/2;
 6/7=2,8=2,9=2,10=2,28=1/1;
 7//1,2,3,16;
 1/14=-1,18=20,19=15,26=3/3(2);
 2/9=110/2;
 99//99;
 2/9=110/2;
 3/6=3,11=2,16=1,25=1,30=1,71=1,74=-5/1,2,3;
 4/5=5,16=3,69=1/1;
 5/5=2,38=5/2;
 7//1,2,3,16;
 1/14=-1,18=20,19=15,26=3/3(-5);
 2/9=110/2;
 6/7=2,8=2,9=2,10=2,19=2,28=1/1;
 99/9=1/99;
 -------------------
 Ethane B3LYP STO-3G
 -------------------
 Symbolic Z-matrix:
 Charge =  0 Multiplicity = 1
 C                    -6.3877    0.65101   0. 
 C                    -4.85301   0.57162   0. 
 H                    -6.75069   1.00542   0.96733 
 H                    -6.81994  -0.3333   -0.19339 
 H                    -6.73338   1.33993  -0.77394 
 H                    -4.50733  -0.1173    0.77394 
 H                    -4.42077   1.55593   0.19339 
 H                    -4.49002   0.21721  -0.96733 
 

 GradGradGradGradGradGradGradGradGradGradGradGradGradGradGradGradGradGrad
 Berny optimization.
 Initialization pass.
                           ----------------------------
                           !    Initial Parameters    !
                           ! (Angstroms and Degrees)  !
 --------------------------                            --------------------------
 ! Name  Definition              Value          Derivative Info.                !
 --------------------------------------------------------------------------------
 ! R1    R(1,2)                  1.5367         estimate D2E/DX2                !
 ! R2    R(1,3)                  1.0923         estimate D2E/DX2                !
 ! R3    R(1,4)                  1.0923         estimate D2E/DX2                !
 ! R4    R(1,5)                  1.0923         estimate D2E/DX2                !
 ! R5    R(2,6)                  1.0923         estimate D2E/DX2                !
 ! R6    R(2,7)                  1.0923         estimate D2E/DX2                !
 ! R7    R(2,8)                  1.0923         estimate D2E/DX2                !
 ! A1    A(2,1,3)              110.4041         estimate D2E/DX2                !
 ! A2    A(2,1,4)              110.4039         estimate D2E/DX2                !
 ! A3    A(2,1,5)              110.4038         estimate D2E/DX2                !
 ! A4    A(3,1,4)              108.5227         estimate D2E/DX2                !
 ! A5    A(3,1,5)              108.5224         estimate D2E/DX2                !
 ! A6    A(4,1,5)              108.5227         estimate D2E/DX2                !
 ! A7    A(1,2,6)              110.4038         estimate D2E/DX2                !
 ! A8    A(1,2,7)              110.4039         estimate D2E/DX2                !
 ! A9    A(1,2,8)              110.4041         estimate D2E/DX2                !
 ! A10   A(6,2,7)              108.5227         estimate D2E/DX2                !
 ! A11   A(6,2,8)              108.5224         estimate D2E/DX2                !
 ! A12   A(7,2,8)              108.5227         estimate D2E/DX2                !
 ! D1    D(3,1,2,6)             60.0002         estimate D2E/DX2                !
 ! D2    D(3,1,2,7)            -59.9998         estimate D2E/DX2                !
 ! D3    D(3,1,2,8)            180.0            estimate D2E/DX2                !
 ! D4    D(4,1,2,6)            -60.0            estimate D2E/DX2                !
 ! D5    D(4,1,2,7)            180.0            estimate D2E/DX2                !
 ! D6    D(4,1,2,8)             59.9998         estimate D2E/DX2                !
 ! D7    D(5,1,2,6)            180.0            estimate D2E/DX2                !
 ! D8    D(5,1,2,7)             60.0            estimate D2E/DX2                !
 ! D9    D(5,1,2,8)            -60.0002         estimate D2E/DX2                !
 --------------------------------------------------------------------------------
 Trust Radius=3.00D-01 FncErr=1.00D-07 GrdErr=1.00D-06
 Number of steps in this run=     38 maximum allowed number of steps=    100.
 GradGradGradGradGradGradGradGradGradGradGradGradGradGradGradGradGradGrad

                          Input orientation:                          
 ---------------------------------------------------------------------
 Center     Atomic      Atomic             Coordinates (Angstroms)
 Number     Number       Type             X           Y           Z
 ---------------------------------------------------------------------
      1          6           0       -6.387700    0.651010    0.000000
      2          6           0       -4.853010    0.571620    0.000000
      3          1           0       -6.750690    1.005420    0.967330
      4          1           0       -6.819940   -0.333300   -0.193390
      5          1           0       -6.733380    1.339930   -0.773940
      6          1           0       -4.507330   -0.117300    0.773940
      7          1           0       -4.420770    1.555930    0.193390
      8          1           0       -4.490020    0.217210   -0.967330
 ---------------------------------------------------------------------
                    Distance matrix (angstroms):
                    1          2          3          4          5
     1  C    0.000000
     2  C    1.536742   0.000000
     3  H    1.092289   2.173729   0.000000
     4  H    1.092290   2.173728   1.773200   0.000000
     5  H    1.092286   2.173724   1.773194   1.773198   0.000000
     6  H    2.173724   1.092286   2.516061   2.516058   3.078108
     7  H    2.173728   1.092290   2.516063   3.078117   2.516058
     8  H    2.173729   1.092289   3.078118   2.516063   2.516061
                    6          7          8
     6  H    0.000000
     7  H    1.773198   0.000000
     8  H    1.773194   1.773200   0.000000
 This structure is nearly, but not quite of a higher symmetry.
 Consider Symm=Loose if the higher symmetry is desired.
 Stoichiometry    C2H6
 Framework group  CI[X(C2H6)]
 Deg. of freedom     9
 Full point group                 CI      NOp   2
 Largest Abelian subgroup         CI      NOp   2
 Largest concise Abelian subgroup CI      NOp   2
                         Standard orientation:                         
 ---------------------------------------------------------------------
 Center     Atomic      Atomic             Coordinates (Angstroms)
 Number     Number       Type             X           Y           Z
 ---------------------------------------------------------------------
      1          6           0       -0.767345    0.039695    0.000000
      2          6           0        0.767345   -0.039695    0.000000
      3          1           0       -1.130335    0.394105    0.967330
      4          1           0       -1.199585   -0.944615   -0.193390
      5          1           0       -1.113025    0.728615   -0.773940
      6          1           0        1.113025   -0.728615    0.773940
      7          1           0        1.199585    0.944615    0.193390
      8          1           0        1.130335   -0.394105   -0.967330
 ---------------------------------------------------------------------
 Rotational constants (GHZ):     79.7421566     19.9565168     19.9564985
 Standard basis: STO-3G (5D, 7F)
 There are     8 symmetry adapted cartesian basis functions of AG  symmetry.
 There are     8 symmetry adapted cartesian basis functions of AU  symmetry.
 There are     8 symmetry adapted basis functions of AG  symmetry.
 There are     8 symmetry adapted basis functions of AU  symmetry.
    16 basis functions,    48 primitive gaussians,    16 cartesian basis functions
     9 alpha electrons        9 beta electrons
       nuclear repulsion energy        42.1695770054 Hartrees.
 NAtoms=    8 NActive=    8 NUniq=    4 SFac= 4.00D+00 NAtFMM=   60 NAOKFM=F Big=F
 Integral buffers will be    131072 words long.
 Raffenetti 2 integral format.
 Two-electron integral symmetry is turned on.
 One-electron integrals computed using PRISM.
 NBasis=    16 RedAO= T EigKep=  1.47D-01  NBF=     8     8
 NBsUse=    16 1.00D-06 EigRej= -1.00D+00 NBFU=     8     8
 ExpMin= 1.69D-01 ExpMax= 7.16D+01 ExpMxC= 7.16D+01 IAcc=1 IRadAn=         1 AccDes= 0.00D+00
 Harris functional with IExCor=  402 and IRadAn=       1 diagonalized for initial guess.
 HarFok:  IExCor=  402 AccDes= 0.00D+00 IRadAn=         1 IDoV= 1 UseB2=F ITyADJ=14
 ICtDFT=  3500011 ScaDFX=  1.000000  1.000000  1.000000  1.000000
 FoFCou: FMM=F IPFlag=           0 FMFlag=      100000 FMFlg1=           0
         NFxFlg=           0 DoJE=T BraDBF=F KetDBF=T FulRan=T
         wScrn=  0.000000 ICntrl=     500 IOpCl=  0 I1Cent=   200000004 NGrid=           0
         NMat0=    1 NMatS0=      1 NMatT0=    0 NMatD0=    1 NMtDS0=    0 NMtDT0=    0
 Petite list used in FoFCou.
 Initial guess orbital symmetries:
       Occupied  (AU) (AG) (AG) (AU) (AU) (AU) (AG) (AG) (AG)
       Virtual   (AU) (AU) (AU) (AG) (AG) (AG) (AU)
 The electronic state of the initial guess is 1-AG.
 Keep R1 ints in memory in symmetry-blocked form, NReq=889161.
 Requested convergence on RMS density matrix=1.00D-08 within 128 cycles.
 Requested convergence on MAX density matrix=1.00D-06.
 Requested convergence on             energy=1.00D-06.
 No special actions if energy rises.
 Integral accuracy reduced to 1.0D-05 until final iterations.
 Initial convergence to 1.0D-05 achieved.  Increase integral accuracy.
 SCF Done:  E(RB3LYP) =  -78.8853893462     A.U. after    8 cycles
            NFock=  8  Conv=0.45D-08     -V/T= 2.0169

 **********************************************************************

            Population analysis using the SCF density.

 **********************************************************************

 Orbital symmetries:
       Occupied  (AU) (AG) (AG) (AU) (AU) (AU) (AG) (AG) (AG)
       Virtual   (AU) (AU) (AU) (AG) (AU) (AG) (AG)
 The electronic state is 1-AG.
 Alpha  occ. eigenvalues --  -10.00301 -10.00200  -0.71762  -0.58480  -0.40495
 Alpha  occ. eigenvalues --   -0.40495  -0.32474  -0.31208  -0.31208
 Alpha virt. eigenvalues --    0.41220   0.41221   0.42927   0.47450   0.51626
 Alpha virt. eigenvalues --    0.51844   0.51844
          Condensed to atoms (all electrons):
               1          2          3          4          5          6
     1  C    4.773404   0.362626   0.382409   0.382409   0.382409  -0.020345
     2  C    0.362626   4.773404  -0.020345  -0.020345  -0.020345   0.382409
     3  H    0.382409  -0.020345   0.608900  -0.021140  -0.021140  -0.002356
     4  H    0.382409  -0.020345  -0.021140   0.608899  -0.021140  -0.002356
     5  H    0.382409  -0.020345  -0.021140  -0.021140   0.608898   0.001956
     6  H   -0.020345   0.382409  -0.002356  -0.002356   0.001956   0.608898
     7  H   -0.020345   0.382409  -0.002356   0.001956  -0.002356  -0.021140
     8  H   -0.020345   0.382409   0.001956  -0.002356  -0.002356  -0.021140
               7          8
     1  C   -0.020345  -0.020345
     2  C    0.382409   0.382409
     3  H   -0.002356   0.001956
     4  H    0.001956  -0.002356
     5  H   -0.002356  -0.002356
     6  H   -0.021140  -0.021140
     7  H    0.608899  -0.021140
     8  H   -0.021140   0.608900
 Mulliken charges:
               1
     1  C   -0.222221
     2  C   -0.222221
     3  H    0.074073
     4  H    0.074074
     5  H    0.074074
     6  H    0.074074
     7  H    0.074074
     8  H    0.074073
 Sum of Mulliken charges =   0.00000
 Mulliken charges with hydrogens summed into heavy atoms:
               1
     1  C    0.000000
     2  C    0.000000
 Electronic spatial extent (au):  <R**2>=            107.1417
 Charge=              0.0000 electrons
 Dipole moment (field-independent basis, Debye):
    X=              0.0000    Y=              0.0000    Z=              0.0000  Tot=              0.0000
 Quadrupole moment (field-independent basis, Debye-Ang):
   XX=            -14.2211   YY=            -13.7979   ZZ=            -13.7968
   XY=              0.0219   XZ=              0.0000   YZ=              0.0000
 Traceless Quadrupole moment (field-independent basis, Debye-Ang):
   XX=             -0.2825   YY=              0.1407   ZZ=              0.1418
   XY=              0.0219   XZ=              0.0000   YZ=              0.0000
 Octapole moment (field-independent basis, Debye-Ang**2):
  XXX=              0.0000  YYY=              0.0000  ZZZ=              0.0000  XYY=              0.0000
  XXY=              0.0000  XXZ=              0.0000  XZZ=              0.0000  YZZ=              0.0000
  YYZ=              0.0000  XYZ=              0.0000
 Hexadecapole moment (field-independent basis, Debye-Ang**3):
 XXXX=            -84.2043 YYYY=            -25.0618 ZZZZ=            -24.6956 XXXY=              1.7497
 XXXZ=              0.0057 YYYX=              2.4304 YYYZ=             -0.1097 ZZZX=             -0.7084
 ZZZY=              0.0366 XXYY=            -16.7812 XXZZ=            -16.9650 YYZZ=             -8.1408
 XXYZ=              0.0730 YYXZ=              0.7028 ZZXY=             -0.6547
 N-N= 4.216957700541D+01 E-N=-2.659360551576D+02  KE= 7.757658858392D+01
 Symmetry AG   KE= 4.036368389650D+01
 Symmetry AU   KE= 3.721290468742D+01
 Calling FoFJK, ICntrl=      2127 FMM=F ISym2X=1 I1Cent= 0 IOpClX= 0 NMat=1 NMatS=1 NMatT=0.
 ***** Axes restored to original set *****
 -------------------------------------------------------------------
 Center     Atomic                   Forces (Hartrees/Bohr)
 Number     Number              X              Y              Z
 -------------------------------------------------------------------
      1        6          -0.000599758    0.000042131    0.000007614
      2        6           0.000599758   -0.000042131   -0.000007614
      3        1          -0.003424410    0.002025722    0.005357378
      4        1          -0.003792154   -0.005372433   -0.001080668
      5        1          -0.003319893    0.003882557   -0.004286625
      6        1           0.003319893   -0.003882557    0.004286625
      7        1           0.003792154    0.005372433    0.001080668
      8        1           0.003424410   -0.002025722   -0.005357378
 -------------------------------------------------------------------
 Cartesian Forces:  Max     0.005372433 RMS     0.003338857

 GradGradGradGradGradGradGradGradGradGradGradGradGradGradGradGradGradGrad
 Berny optimization.
 FormGI is forming the generalized inverse of G from B-inverse, IUseBI=4.
 Internal  Forces:  Max     0.011151204 RMS     0.003790325
 Search for a local minimum.
 Step number   1 out of a maximum of   38
 All quantities printed in internal units (Hartrees-Bohrs-Radians)
 Mixed Optimization -- RFO/linear search
 Second derivative matrix not updated -- first step.
 ITU=  0
     Eigenvalues ---    0.00280   0.05575   0.05575   0.05575   0.05575
     Eigenvalues ---    0.16000   0.16000   0.16000   0.16000   0.16000
     Eigenvalues ---    0.16000   0.28809   0.34549   0.34549   0.34549
     Eigenvalues ---    0.34549   0.34550   0.34550
 RFO step:  Lambda=-1.30252493D-03 EMin= 2.79920382D-03
 Linear search not attempted -- first point.
 Iteration  1 RMS(Cart)=  0.02066779 RMS(Int)=  0.00004570
 Iteration  2 RMS(Cart)=  0.00005659 RMS(Int)=  0.00002155
 Iteration  3 RMS(Cart)=  0.00000000 RMS(Int)=  0.00002155
 ClnCor:  largest displacement from symmetrization is 7.59D-09 for atom     6.
 Variable       Old X    -DE/DX   Delta X   Delta X   Delta X     New X
                                 (Linear)    (Quad)   (Total)
    R1        2.90402   0.01115   0.00000   0.03853   0.03853   2.94255
    R2        2.06413   0.00654   0.00000   0.01886   0.01886   2.08299
    R3        2.06413   0.00653   0.00000   0.01883   0.01883   2.08296
    R4        2.06412   0.00654   0.00000   0.01885   0.01885   2.08297
    R5        2.06412   0.00654   0.00000   0.01885   0.01885   2.08297
    R6        2.06413   0.00653   0.00000   0.01883   0.01883   2.08296
    R7        2.06413   0.00654   0.00000   0.01886   0.01886   2.08299
    A1        1.92691   0.00132   0.00000   0.00823   0.00820   1.93511
    A2        1.92691   0.00131   0.00000   0.00810   0.00807   1.93498
    A3        1.92691   0.00132   0.00000   0.00817   0.00814   1.93505
    A4        1.89408  -0.00136   0.00000  -0.00845  -0.00848   1.88560
    A5        1.89407  -0.00136   0.00000  -0.00840  -0.00843   1.88564
    A6        1.89408  -0.00136   0.00000  -0.00849  -0.00852   1.88556
    A7        1.92691   0.00132   0.00000   0.00817   0.00814   1.93505
    A8        1.92691   0.00131   0.00000   0.00810   0.00807   1.93498
    A9        1.92691   0.00132   0.00000   0.00823   0.00820   1.93511
   A10        1.89408  -0.00136   0.00000  -0.00849  -0.00852   1.88556
   A11        1.89407  -0.00136   0.00000  -0.00840  -0.00843   1.88564
   A12        1.89408  -0.00136   0.00000  -0.00845  -0.00848   1.88560
    D1        1.04720  -0.00001   0.00000  -0.00010  -0.00010   1.04710
    D2       -1.04719   0.00000   0.00000   0.00000   0.00000  -1.04720
    D3        3.14159   0.00000   0.00000   0.00000   0.00000   3.14159
    D4       -1.04720  -0.00001   0.00000  -0.00009  -0.00010  -1.04729
    D5        3.14159   0.00000   0.00000   0.00000   0.00000   3.14159
    D6        1.04719   0.00000   0.00000   0.00000   0.00000   1.04720
    D7        3.14159   0.00000   0.00000   0.00000   0.00000   3.14159
    D8        1.04720   0.00001   0.00000   0.00009   0.00010   1.04729
    D9       -1.04720   0.00001   0.00000   0.00010   0.00010  -1.04710
         Item               Value     Threshold  Converged?
 Maximum Force            0.011151     0.000450     NO 
 RMS     Force            0.003790     0.000300     NO 
 Maximum Displacement     0.042174     0.001800     NO 
 RMS     Displacement     0.020697     0.001200     NO 
 Predicted change in Energy=-6.541560D-04
 GradGradGradGradGradGradGradGradGradGradGradGradGradGradGradGradGradGrad

                          Input orientation:                          
 ---------------------------------------------------------------------
 Center     Atomic      Atomic             Coordinates (Angstroms)
 Number     Number       Type             X           Y           Z
 ---------------------------------------------------------------------
      1          6           0       -6.397880    0.651563    0.000021
      2          6           0       -4.842830    0.571067   -0.000021
      3          1           0       -6.772649    1.008586    0.973204
      4          1           0       -6.842258   -0.338203   -0.194561
      5          1           0       -6.755207    1.345104   -0.778628
      6          1           0       -4.485503   -0.122474    0.778628
      7          1           0       -4.398452    1.560833    0.194561
      8          1           0       -4.468061    0.214044   -0.973204
 ---------------------------------------------------------------------
                    Distance matrix (angstroms):
                    1          2          3          4          5
     1  C    0.000000
     2  C    1.557133   0.000000
     3  H    1.102271   2.205174   0.000000
     4  H    1.102257   2.205069   1.783918   0.000000
     5  H    1.102260   2.205118   1.783947   1.783881   0.000000
     6  H    2.205118   1.102260   2.558943   2.558892   3.119356
     7  H    2.205069   1.102257   2.558920   3.119284   2.558892
     8  H    2.205174   1.102271   3.119444   2.558920   2.558943
                    6          7          8
     6  H    0.000000
     7  H    1.783881   0.000000
     8  H    1.783947   1.783918   0.000000
 Stoichiometry    C2H6
 Framework group  CI[X(C2H6)]
 Deg. of freedom     9
 Full point group                 CI      NOp   2
 Largest Abelian subgroup         CI      NOp   2
 Largest concise Abelian subgroup CI      NOp   2
                         Standard orientation:                         
 ---------------------------------------------------------------------
 Center     Atomic      Atomic             Coordinates (Angstroms)
 Number     Number       Type             X           Y           Z
 ---------------------------------------------------------------------
      1          6           0       -0.777525    0.040248    0.000021
      2          6           0        0.777525   -0.040248   -0.000021
      3          1           0       -1.152294    0.397271    0.973204
      4          1           0       -1.221903   -0.949518   -0.194561
      5          1           0       -1.134852    0.733789   -0.778628
      6          1           0        1.134852   -0.733789    0.778628
      7          1           0        1.221903    0.949518    0.194561
      8          1           0        1.152294   -0.397271   -0.973204
 ---------------------------------------------------------------------
 Rotational constants (GHZ):     78.7868411     19.4000356     19.3998331
 Standard basis: STO-3G (5D, 7F)
 There are     8 symmetry adapted cartesian basis functions of AG  symmetry.
 There are     8 symmetry adapted cartesian basis functions of AU  symmetry.
 There are     8 symmetry adapted basis functions of AG  symmetry.
 There are     8 symmetry adapted basis functions of AU  symmetry.
    16 basis functions,    48 primitive gaussians,    16 cartesian basis functions
     9 alpha electrons        9 beta electrons
       nuclear repulsion energy        41.6859443443 Hartrees.
 NAtoms=    8 NActive=    8 NUniq=    4 SFac= 4.00D+00 NAtFMM=   60 NAOKFM=F Big=F
 Integral buffers will be    131072 words long.
 Raffenetti 2 integral format.
 Two-electron integral symmetry is turned on.
 One-electron integrals computed using PRISM.
 NBasis=    16 RedAO= T EigKep=  1.53D-01  NBF=     8     8
 NBsUse=    16 1.00D-06 EigRej= -1.00D+00 NBFU=     8     8
 Initial guess from the checkpoint file:  "/scr/Gau-18550.chk"
 B after Tr=     0.000000    0.000000    0.000000
         Rot=    1.000000    0.000000   -0.000004    0.000005 Ang=   0.00 deg.
 Initial guess orbital symmetries:
       Occupied  (AU) (AG) (AG) (AU) (AU) (AU) (AG) (AG) (AG)
       Virtual   (AG) (AG) (AG) (AU) (AU) (AU) (AU)
 ExpMin= 1.69D-01 ExpMax= 7.16D+01 ExpMxC= 7.16D+01 IAcc=1 IRadAn=         1 AccDes= 0.00D+00
 Harris functional with IExCor=  402 and IRadAn=       1 diagonalized for initial guess.
 HarFok:  IExCor=  402 AccDes= 0.00D+00 IRadAn=         1 IDoV= 1 UseB2=F ITyADJ=14
 ICtDFT=  3500011 ScaDFX=  1.000000  1.000000  1.000000  1.000000
 FoFCou: FMM=F IPFlag=           0 FMFlag=      100000 FMFlg1=           0
         NFxFlg=           0 DoJE=T BraDBF=F KetDBF=T FulRan=T
         wScrn=  0.000000 ICntrl=     500 IOpCl=  0 I1Cent=   200000004 NGrid=           0
         NMat0=    1 NMatS0=      1 NMatT0=    0 NMatD0=    1 NMtDS0=    0 NMtDT0=    0
 Petite list used in FoFCou.
 Keep R1 ints in memory in symmetry-blocked form, NReq=889161.
 Requested convergence on RMS density matrix=1.00D-08 within 128 cycles.
 Requested convergence on MAX density matrix=1.00D-06.
 Requested convergence on             energy=1.00D-06.
 No special actions if energy rises.
 Integral accuracy reduced to 1.0D-05 until final iterations.
 Initial convergence to 1.0D-05 achieved.  Increase integral accuracy.
 SCF Done:  E(RB3LYP) =  -78.8858625151     A.U. after    8 cycles
            NFock=  8  Conv=0.37D-08     -V/T= 2.0177
 Calling FoFJK, ICntrl=      2127 FMM=F ISym2X=1 I1Cent= 0 IOpClX= 0 NMat=1 NMatS=1 NMatT=0.
 ***** Axes restored to original set *****
 -------------------------------------------------------------------
 Center     Atomic                   Forces (Hartrees/Bohr)
 Number     Number              X              Y              Z
 -------------------------------------------------------------------
      1        6           0.001377326   -0.000075063   -0.000004645
      2        6          -0.001377326    0.000075063    0.000004645
      3        1           0.000893373   -0.000321154   -0.000776949
      4        1           0.000947648    0.000752207    0.000148134
      5        1           0.000880293   -0.000578821    0.000620097
      6        1          -0.000880293    0.000578821   -0.000620097
      7        1          -0.000947648   -0.000752207   -0.000148134
      8        1          -0.000893373    0.000321154    0.000776949
 -------------------------------------------------------------------
 Cartesian Forces:  Max     0.001377326 RMS     0.000729604

 GradGradGradGradGradGradGradGradGradGradGradGradGradGradGradGradGradGrad
 Berny optimization.
 Using GEDIIS/GDIIS optimizer.
 FormGI is forming the generalized inverse of G from B-inverse, IUseBI=4.
 Internal  Forces:  Max     0.004104680 RMS     0.000996416
 Search for a local minimum.
 Step number   2 out of a maximum of   38
 All quantities printed in internal units (Hartrees-Bohrs-Radians)
 Mixed Optimization -- En-DIIS/RFO-DIIS
 Update second derivatives using D2CorX and points    1    2
 DE= -4.73D-04 DEPred=-6.54D-04 R= 7.23D-01
 TightC=F SS=  1.41D+00  RLast= 6.67D-02 DXNew= 5.0454D-01 2.0001D-01
 Trust test= 7.23D-01 RLast= 6.67D-02 DXMaxT set to 3.00D-01
 ITU=  1  0
 Use linear search instead of GDIIS.
     Eigenvalues ---    0.00280   0.05489   0.05489   0.05490   0.05490
     Eigenvalues ---    0.16000   0.16000   0.16000   0.16000   0.16000
     Eigenvalues ---    0.16636   0.30928   0.34549   0.34549   0.34549
     Eigenvalues ---    0.34550   0.34550   0.39151
 RFO step:  Lambda=-9.70809387D-06 EMin= 2.79920382D-03
 Quartic linear search produced a step of -0.21150.
 Iteration  1 RMS(Cart)=  0.00567230 RMS(Int)=  0.00000421
 Iteration  2 RMS(Cart)=  0.00000369 RMS(Int)=  0.00000207
 Iteration  3 RMS(Cart)=  0.00000000 RMS(Int)=  0.00000207
 ClnCor:  largest displacement from symmetrization is 6.30D-09 for atom     8.
 Variable       Old X    -DE/DX   Delta X   Delta X   Delta X     New X
                                 (Linear)    (Quad)   (Total)
    R1        2.94255  -0.00410  -0.00815  -0.00304  -0.01119   2.93137
    R2        2.08299  -0.00109  -0.00399   0.00154  -0.00245   2.08054
    R3        2.08296  -0.00109  -0.00398   0.00155  -0.00243   2.08053
    R4        2.08297  -0.00109  -0.00399   0.00155  -0.00244   2.08053
    R5        2.08297  -0.00109  -0.00399   0.00155  -0.00244   2.08053
    R6        2.08296  -0.00109  -0.00398   0.00155  -0.00243   2.08053
    R7        2.08299  -0.00109  -0.00399   0.00154  -0.00245   2.08054
    A1        1.93511  -0.00056  -0.00173  -0.00105  -0.00278   1.93233
    A2        1.93498  -0.00055  -0.00171  -0.00103  -0.00273   1.93225
    A3        1.93505  -0.00055  -0.00172  -0.00104  -0.00275   1.93229
    A4        1.88560   0.00058   0.00179   0.00109   0.00288   1.88848
    A5        1.88564   0.00058   0.00178   0.00109   0.00288   1.88852
    A6        1.88556   0.00058   0.00180   0.00109   0.00290   1.88846
    A7        1.93505  -0.00055  -0.00172  -0.00104  -0.00275   1.93229
    A8        1.93498  -0.00055  -0.00171  -0.00103  -0.00273   1.93225
    A9        1.93511  -0.00056  -0.00173  -0.00105  -0.00278   1.93233
   A10        1.88556   0.00058   0.00180   0.00109   0.00290   1.88846
   A11        1.88564   0.00058   0.00178   0.00109   0.00288   1.88852
   A12        1.88560   0.00058   0.00179   0.00109   0.00288   1.88848
    D1        1.04710   0.00000   0.00002   0.00001   0.00003   1.04713
    D2       -1.04720   0.00000   0.00000   0.00000   0.00000  -1.04720
    D3        3.14159   0.00000   0.00000   0.00000   0.00000   3.14159
    D4       -1.04729   0.00000   0.00002   0.00001   0.00003  -1.04726
    D5        3.14159   0.00000   0.00000   0.00000   0.00000   3.14159
    D6        1.04720   0.00000   0.00000   0.00000   0.00000   1.04720
    D7        3.14159   0.00000   0.00000   0.00000   0.00000   3.14159
    D8        1.04729   0.00000  -0.00002  -0.00001  -0.00003   1.04726
    D9       -1.04710   0.00000  -0.00002  -0.00001  -0.00003  -1.04713
         Item               Value     Threshold  Converged?
 Maximum Force            0.004105     0.000450     NO 
 RMS     Force            0.000996     0.000300     NO 
 Maximum Displacement     0.011826     0.001800     NO 
 RMS     Displacement     0.005674     0.001200     NO 
 Predicted change in Energy=-3.948671D-05
 GradGradGradGradGradGradGradGradGradGradGradGradGradGradGradGradGradGrad

                          Input orientation:                          
 ---------------------------------------------------------------------
 Center     Atomic      Atomic             Coordinates (Angstroms)
 Number     Number       Type             X           Y           Z
 ---------------------------------------------------------------------
      1          6           0       -6.394925    0.651402    0.000013
      2          6           0       -4.845785    0.571228   -0.000013
      3          1           0       -6.766391    1.008216    0.973071
      4          1           0       -6.836017   -0.338406   -0.194536
      5          1           0       -6.748964    1.344698   -0.778528
      6          1           0       -4.491746   -0.122068    0.778528
      7          1           0       -4.404693    1.561036    0.194536
      8          1           0       -4.474319    0.214414   -0.973071
 ---------------------------------------------------------------------
                    Distance matrix (angstroms):
                    1          2          3          4          5
     1  C    0.000000
     2  C    1.551212   0.000000
     3  H    1.100975   2.196947   0.000000
     4  H    1.100969   2.196883   1.783689   0.000000
     5  H    1.100968   2.196913   1.783711   1.783666   0.000000
     6  H    2.196913   1.100968   2.547430   2.547403   3.109800
     7  H    2.196883   1.100969   2.547419   3.109758   2.547403
     8  H    2.196947   1.100975   3.109853   2.547419   2.547430
                    6          7          8
     6  H    0.000000
     7  H    1.783666   0.000000
     8  H    1.783711   1.783689   0.000000
 Stoichiometry    C2H6
 Framework group  CI[X(C2H6)]
 Deg. of freedom     9
 Full point group                 CI      NOp   2
 Largest Abelian subgroup         CI      NOp   2
 Largest concise Abelian subgroup CI      NOp   2
                         Standard orientation:                         
 ---------------------------------------------------------------------
 Center     Atomic      Atomic             Coordinates (Angstroms)
 Number     Number       Type             X           Y           Z
 ---------------------------------------------------------------------
      1          6           0       -0.774570    0.040087    0.000013
      2          6           0        0.774570   -0.040087   -0.000013
      3          1           0       -1.146036    0.396901    0.973071
      4          1           0       -1.215662   -0.949721   -0.194536
      5          1           0       -1.128609    0.733383   -0.778528
      6          1           0        1.128609   -0.733383    0.778528
      7          1           0        1.215662    0.949721    0.194536
      8          1           0        1.146036   -0.396901   -0.973071
 ---------------------------------------------------------------------
 Rotational constants (GHZ):     78.8068387     19.5497989     19.5496567
 Standard basis: STO-3G (5D, 7F)
 There are     8 symmetry adapted cartesian basis functions of AG  symmetry.
 There are     8 symmetry adapted cartesian basis functions of AU  symmetry.
 There are     8 symmetry adapted basis functions of AG  symmetry.
 There are     8 symmetry adapted basis functions of AU  symmetry.
    16 basis functions,    48 primitive gaussians,    16 cartesian basis functions
     9 alpha electrons        9 beta electrons
       nuclear repulsion energy        41.7925801971 Hartrees.
 NAtoms=    8 NActive=    8 NUniq=    4 SFac= 4.00D+00 NAtFMM=   60 NAOKFM=F Big=F
 Integral buffers will be    131072 words long.
 Raffenetti 2 integral format.
 Two-electron integral symmetry is turned on.
 One-electron integrals computed using PRISM.
 NBasis=    16 RedAO= T EigKep=  1.52D-01  NBF=     8     8
 NBsUse=    16 1.00D-06 EigRej= -1.00D+00 NBFU=     8     8
 Initial guess from the checkpoint file:  "/scr/Gau-18550.chk"
 B after Tr=     0.000000    0.000000    0.000000
         Rot=    1.000000    0.000000    0.000002   -0.000002 Ang=   0.00 deg.
 Initial guess orbital symmetries:
       Occupied  (AU) (AG) (AG) (AU) (AU) (AU) (AG) (AG) (AG)
       Virtual   (AG) (AG) (AG) (AU) (AU) (AU) (AU)
 Keep R1 ints in memory in symmetry-blocked form, NReq=889161.
 Requested convergence on RMS density matrix=1.00D-08 within 128 cycles.
 Requested convergence on MAX density matrix=1.00D-06.
 Requested convergence on             energy=1.00D-06.
 No special actions if energy rises.
 SCF Done:  E(RB3LYP) =  -78.8859015794     A.U. after    5 cycles
            NFock=  5  Conv=0.53D-08     -V/T= 2.0176
 Calling FoFJK, ICntrl=      2127 FMM=F ISym2X=1 I1Cent= 0 IOpClX= 0 NMat=1 NMatS=1 NMatT=0.
 ***** Axes restored to original set *****
 -------------------------------------------------------------------
 Center     Atomic                   Forces (Hartrees/Bohr)
 Number     Number              X              Y              Z
 -------------------------------------------------------------------
      1        6          -0.000182527    0.000008864   -0.000001371
      2        6           0.000182527   -0.000008864    0.000001371
      3        1          -0.000026367   -0.000062230   -0.000165389
      4        1          -0.000008594    0.000171292    0.000025567
      5        1          -0.000024989   -0.000111674    0.000132339
      6        1           0.000024989    0.000111674   -0.000132339
      7        1           0.000008594   -0.000171292   -0.000025567
      8        1           0.000026367    0.000062230    0.000165389
 -------------------------------------------------------------------
 Cartesian Forces:  Max     0.000182527 RMS     0.000102468

 GradGradGradGradGradGradGradGradGradGradGradGradGradGradGradGradGradGrad
 Berny optimization.
 Using GEDIIS/GDIIS optimizer.
 FormGI is forming the generalized inverse of G from B-inverse, IUseBI=4.
 Internal  Forces:  Max     0.000242477 RMS     0.000100919
 Search for a local minimum.
 Step number   3 out of a maximum of   38
 All quantities printed in internal units (Hartrees-Bohrs-Radians)
 Mixed Optimization -- En-DIIS/RFO-DIIS
 Swapping is turned off.
 Update second derivatives using D2CorX and points    1    2    3
 DE= -3.91D-05 DEPred=-3.95D-05 R= 9.89D-01
 TightC=F SS=  1.41D+00  RLast= 1.60D-02 DXNew= 5.0454D-01 4.8040D-02
 Trust test= 9.89D-01 RLast= 1.60D-02 DXMaxT set to 3.00D-01
 ITU=  1  1  0
     Eigenvalues ---    0.00280   0.05518   0.05518   0.05519   0.05519
     Eigenvalues ---    0.16000   0.16000   0.16000   0.16000   0.16000
     Eigenvalues ---    0.17359   0.32963   0.34549   0.34549   0.34549
     Eigenvalues ---    0.34550   0.34550   0.36608
 En-DIIS/RFO-DIIS IScMMF=        0 using points:     3    2
 RFO step:  Lambda=-5.35682979D-07.
 DidBck=F Rises=F RFO-DIIS coefs:    0.96210    0.03790
 Iteration  1 RMS(Cart)=  0.00057081 RMS(Int)=  0.00000015
 Iteration  2 RMS(Cart)=  0.00000016 RMS(Int)=  0.00000003
 ClnCor:  largest displacement from symmetrization is 1.55D-08 for atom     6.
 Variable       Old X    -DE/DX   Delta X   Delta X   Delta X     New X
                                 (Linear)    (Quad)   (Total)
    R1        2.93137   0.00024   0.00042   0.00016   0.00059   2.93195
    R2        2.08054  -0.00016   0.00009  -0.00058  -0.00049   2.08005
    R3        2.08053  -0.00016   0.00009  -0.00058  -0.00049   2.08004
    R4        2.08053  -0.00016   0.00009  -0.00058  -0.00049   2.08004
    R5        2.08053  -0.00016   0.00009  -0.00058  -0.00049   2.08004
    R6        2.08053  -0.00016   0.00009  -0.00058  -0.00049   2.08004
    R7        2.08054  -0.00016   0.00009  -0.00058  -0.00049   2.08005
    A1        1.93233   0.00008   0.00011   0.00032   0.00043   1.93276
    A2        1.93225   0.00008   0.00010   0.00032   0.00042   1.93267
    A3        1.93229   0.00008   0.00010   0.00032   0.00043   1.93272
    A4        1.88848  -0.00008  -0.00011  -0.00034  -0.00044   1.88804
    A5        1.88852  -0.00008  -0.00011  -0.00033  -0.00044   1.88807
    A6        1.88846  -0.00008  -0.00011  -0.00034  -0.00045   1.88801
    A7        1.93229   0.00008   0.00010   0.00032   0.00043   1.93272
    A8        1.93225   0.00008   0.00010   0.00032   0.00042   1.93267
    A9        1.93233   0.00008   0.00011   0.00032   0.00043   1.93276
   A10        1.88846  -0.00008  -0.00011  -0.00034  -0.00045   1.88801
   A11        1.88852  -0.00008  -0.00011  -0.00033  -0.00044   1.88807
   A12        1.88848  -0.00008  -0.00011  -0.00034  -0.00044   1.88804
    D1        1.04713   0.00000   0.00000   0.00000  -0.00001   1.04712
    D2       -1.04720   0.00000   0.00000   0.00000   0.00000  -1.04720
    D3        3.14159   0.00000   0.00000   0.00000   0.00000   3.14159
    D4       -1.04726   0.00000   0.00000   0.00000  -0.00001  -1.04727
    D5        3.14159   0.00000   0.00000   0.00000   0.00000   3.14159
    D6        1.04720   0.00000   0.00000   0.00000   0.00000   1.04720
    D7        3.14159   0.00000   0.00000   0.00000   0.00000   3.14159
    D8        1.04726   0.00000   0.00000   0.00000   0.00001   1.04727
    D9       -1.04713   0.00000   0.00000   0.00000   0.00001  -1.04712
         Item               Value     Threshold  Converged?
 Maximum Force            0.000242     0.000450     YES
 RMS     Force            0.000101     0.000300     YES
 Maximum Displacement     0.000972     0.001800     YES
 RMS     Displacement     0.000571     0.001200     YES
 Predicted change in Energy=-5.134327D-07
 Optimization completed.
    -- Stationary point found.
                           ----------------------------
                           !   Optimized Parameters   !
                           ! (Angstroms and Degrees)  !
 --------------------------                            --------------------------
 ! Name  Definition              Value          Derivative Info.                !
 --------------------------------------------------------------------------------
 ! R1    R(1,2)                  1.5512         -DE/DX =    0.0002              !
 ! R2    R(1,3)                  1.101          -DE/DX =   -0.0002              !
 ! R3    R(1,4)                  1.101          -DE/DX =   -0.0002              !
 ! R4    R(1,5)                  1.101          -DE/DX =   -0.0002              !
 ! R5    R(2,6)                  1.101          -DE/DX =   -0.0002              !
 ! R6    R(2,7)                  1.101          -DE/DX =   -0.0002              !
 ! R7    R(2,8)                  1.101          -DE/DX =   -0.0002              !
 ! A1    A(2,1,3)              110.7145         -DE/DX =    0.0001              !
 ! A2    A(2,1,4)              110.7099         -DE/DX =    0.0001              !
 ! A3    A(2,1,5)              110.7123         -DE/DX =    0.0001              !
 ! A4    A(3,1,4)              108.2021         -DE/DX =   -0.0001              !
 ! A5    A(3,1,5)              108.2041         -DE/DX =   -0.0001              !
 ! A6    A(4,1,5)              108.2005         -DE/DX =   -0.0001              !
 ! A7    A(1,2,6)              110.7123         -DE/DX =    0.0001              !
 ! A8    A(1,2,7)              110.7099         -DE/DX =    0.0001              !
 ! A9    A(1,2,8)              110.7145         -DE/DX =    0.0001              !
 ! A10   A(6,2,7)              108.2005         -DE/DX =   -0.0001              !
 ! A11   A(6,2,8)              108.2041         -DE/DX =   -0.0001              !
 ! A12   A(7,2,8)              108.2021         -DE/DX =   -0.0001              !
 ! D1    D(3,1,2,6)             59.9961         -DE/DX =    0.0                 !
 ! D2    D(3,1,2,7)            -60.0002         -DE/DX =    0.0                 !
 ! D3    D(3,1,2,8)            180.0            -DE/DX =    0.0                 !
 ! D4    D(4,1,2,6)            -60.0036         -DE/DX =    0.0                 !
 ! D5    D(4,1,2,7)            180.0            -DE/DX =    0.0                 !
 ! D6    D(4,1,2,8)             60.0002         -DE/DX =    0.0                 !
 ! D7    D(5,1,2,6)            180.0            -DE/DX =    0.0                 !
 ! D8    D(5,1,2,7)             60.0036         -DE/DX =    0.0                 !
 ! D9    D(5,1,2,8)            -59.9961         -DE/DX =    0.0                 !
 --------------------------------------------------------------------------------
 GradGradGradGradGradGradGradGradGradGradGradGradGradGradGradGradGradGrad

                          Input orientation:                          
 ---------------------------------------------------------------------
 Center     Atomic      Atomic             Coordinates (Angstroms)
 Number     Number       Type             X           Y           Z
 ---------------------------------------------------------------------
      1          6           0       -6.394925    0.651402    0.000013
      2          6           0       -4.845785    0.571228   -0.000013
      3          1           0       -6.766391    1.008216    0.973071
      4          1           0       -6.836017   -0.338406   -0.194536
      5          1           0       -6.748964    1.344698   -0.778528
      6          1           0       -4.491746   -0.122068    0.778528
      7          1           0       -4.404693    1.561036    0.194536
      8          1           0       -4.474319    0.214414   -0.973071
 ---------------------------------------------------------------------
                    Distance matrix (angstroms):
                    1          2          3          4          5
     1  C    0.000000
     2  C    1.551212   0.000000
     3  H    1.100975   2.196947   0.000000
     4  H    1.100969   2.196883   1.783689   0.000000
     5  H    1.100968   2.196913   1.783711   1.783666   0.000000
     6  H    2.196913   1.100968   2.547430   2.547403   3.109800
     7  H    2.196883   1.100969   2.547419   3.109758   2.547403
     8  H    2.196947   1.100975   3.109853   2.547419   2.547430
                    6          7          8
     6  H    0.000000
     7  H    1.783666   0.000000
     8  H    1.783711   1.783689   0.000000
 Stoichiometry    C2H6
 Framework group  CI[X(C2H6)]
 Deg. of freedom     9
 Full point group                 CI      NOp   2
 Largest Abelian subgroup         CI      NOp   2
 Largest concise Abelian subgroup CI      NOp   2
                         Standard orientation:                         
 ---------------------------------------------------------------------
 Center     Atomic      Atomic             Coordinates (Angstroms)
 Number     Number       Type             X           Y           Z
 ---------------------------------------------------------------------
      1          6           0       -0.774570    0.040087    0.000013
      2          6           0        0.774570   -0.040087   -0.000013
      3          1           0       -1.146036    0.396901    0.973071
      4          1           0       -1.215662   -0.949721   -0.194536
      5          1           0       -1.128609    0.733383   -0.778528
      6          1           0        1.128609   -0.733383    0.778528
      7          1           0        1.215662    0.949721    0.194536
      8          1           0        1.146036   -0.396901   -0.973071
 ---------------------------------------------------------------------
 Rotational constants (GHZ):     78.8068387     19.5497989     19.5496567

 **********************************************************************

            Population analysis using the SCF density.

 **********************************************************************

 Orbital symmetries:
       Occupied  (AU) (AG) (AG) (AU) (AU) (AU) (AG) (AG) (AG)
       Virtual   (AU) (AU) (AU) (AG) (AU) (AG) (AG)
 The electronic state is 1-AG.
 Alpha  occ. eigenvalues --  -10.00380 -10.00278  -0.71210  -0.58303  -0.40019
 Alpha  occ. eigenvalues --   -0.40018  -0.32274  -0.31050  -0.31049
 Alpha virt. eigenvalues --    0.40492   0.40492   0.41886   0.46733   0.50279
 Alpha virt. eigenvalues --    0.50947   0.50949
          Condensed to atoms (all electrons):
               1          2          3          4          5          6
     1  C    4.773517   0.360784   0.380089   0.380087   0.380089  -0.019529
     2  C    0.360784   4.773517  -0.019527  -0.019531  -0.019529   0.380089
     3  H    0.380089  -0.019527   0.611925  -0.021008  -0.021007  -0.002133
     4  H    0.380087  -0.019531  -0.021008   0.611935  -0.021009  -0.002133
     5  H    0.380089  -0.019529  -0.021007  -0.021009   0.611928   0.001801
     6  H   -0.019529   0.380089  -0.002133  -0.002133   0.001801   0.611928
     7  H   -0.019531   0.380087  -0.002133   0.001801  -0.002133  -0.021009
     8  H   -0.019527   0.380089   0.001800  -0.002133  -0.002133  -0.021007
               7          8
     1  C   -0.019531  -0.019527
     2  C    0.380087   0.380089
     3  H   -0.002133   0.001800
     4  H    0.001801  -0.002133
     5  H   -0.002133  -0.002133
     6  H   -0.021009  -0.021007
     7  H    0.611935  -0.021008
     8  H   -0.021008   0.611925
 Mulliken charges:
               1
     1  C   -0.215979
     2  C   -0.215979
     3  H    0.071994
     4  H    0.071992
     5  H    0.071994
     6  H    0.071994
     7  H    0.071992
     8  H    0.071994
 Sum of Mulliken charges =   0.00000
 Mulliken charges with hydrogens summed into heavy atoms:
               1
     1  C    0.000000
     2  C    0.000000
 Electronic spatial extent (au):  <R**2>=            108.6366
 Charge=              0.0000 electrons
 Dipole moment (field-independent basis, Debye):
    X=              0.0000    Y=              0.0000    Z=              0.0000  Tot=              0.0000
 Quadrupole moment (field-independent basis, Debye-Ang):
   XX=            -14.1462   YY=            -13.8123   ZZ=            -13.8112
   XY=              0.0173   XZ=              0.0000   YZ=              0.0000
 Traceless Quadrupole moment (field-independent basis, Debye-Ang):
   XX=             -0.2230   YY=              0.1109   ZZ=              0.1120
   XY=              0.0173   XZ=              0.0000   YZ=              0.0000
 Octapole moment (field-independent basis, Debye-Ang**2):
  XXX=              0.0000  YYY=              0.0000  ZZZ=              0.0000  XYY=              0.0000
  XXY=              0.0000  XXZ=              0.0000  XZZ=              0.0000  YZZ=              0.0000
  YYZ=              0.0000  XYZ=              0.0000
 Hexadecapole moment (field-independent basis, Debye-Ang**3):
 XXXX=            -85.6778 YYYY=            -25.2624 ZZZZ=            -24.8868 XXXY=              1.7906
 XXXZ=              0.0061 YYYX=              2.4903 YYYZ=             -0.1130 ZZZX=             -0.7297
 ZZZY=              0.0377 XXYY=            -17.0105 XXZZ=            -17.1997 YYZZ=             -8.2014
 XXYZ=              0.0753 YYXZ=              0.7244 ZZXY=             -0.6795
 N-N= 4.179258019708D+01 E-N=-2.651803167080D+02  KE= 7.752350975534D+01
 Symmetry AG   KE= 4.031848903847D+01
 Symmetry AU   KE= 3.720502071687D+01
 1\1\GINC-N0286\FOpt\RB3LYP\STO-3G\C2H6\GDAVIDS3\21-Feb-2017\0\\#n B3LY
 P/STO-3G Opt\\Ethane B3LYP STO-3G\\0,1\C,-6.3949245242,0.6514017879,0.
 0000132042\C,-4.8457854758,0.5712282121,-0.0000132042\H,-6.7663908753,
 1.0082163585,0.9730713944\H,-6.8360168713,-0.3384061795,-0.1945360705\
 H,-6.7489637937,1.3446976839,-0.7785284896\H,-4.4917462063,-0.12206768
 39,0.7785284896\H,-4.4046931287,1.5610361795,0.1945360705\H,-4.4743191
 247,0.2144136415,-0.9730713944\\Version=ES64L-G09RevE.01\State=1-AG\HF
 =-78.8859016\RMSD=5.283e-09\RMSF=1.025e-04\Dipole=0.,0.,0.\Quadrupole=
 -0.1657589,0.0824688,0.0832901,0.0128432,-0.0000259,0.0000096\PG=CI [X
 (C2H6)]\\@


 Mondays are the potholes in the road of life.
                                -- Tom Wilson
 Job cpu time:       0 days  0 hours  0 minutes 21.3 seconds.
 File lengths (MBytes):  RWF=      5 Int=      0 D2E=      0 Chk=      1 Scr=      1
 Normal termination of Gaussian 09 at Tue Feb 21 17:15:22 2017.
