 Entering Gaussian System, Link 0=g09
 Input=BAM_FOR_3.com
 Output=BAM_FOR_3.log
 Initial command:
 /gscratch/pfaendtner/codes/G09/g09/l1.exe /gscratch/pfaendtner/wesley/gaussian/Gau-24287.inp -scrdir=/gscratch/pfaendtner/wesley/gaussian/
 Entering Link 1 = /gscratch/pfaendtner/codes/G09/g09/l1.exe PID=     24288.
  
 Copyright (c) 1988,1990,1992,1993,1995,1998,2003,2009, Gaussian, Inc.
                  All Rights Reserved.
  
 This is part of the Gaussian(R) 09 program.  It is based on
 the Gaussian(R) 03 system (copyright 2003, Gaussian, Inc.),
 the Gaussian(R) 98 system (copyright 1998, Gaussian, Inc.),
 the Gaussian(R) 94 system (copyright 1995, Gaussian, Inc.),
 the Gaussian 92(TM) system (copyright 1992, Gaussian, Inc.),
 the Gaussian 90(TM) system (copyright 1990, Gaussian, Inc.),
 the Gaussian 88(TM) system (copyright 1988, Gaussian, Inc.),
 the Gaussian 86(TM) system (copyright 1986, Carnegie Mellon
 University), and the Gaussian 82(TM) system (copyright 1983,
 Carnegie Mellon University). Gaussian is a federally registered
 trademark of Gaussian, Inc.
  
 This software contains proprietary and confidential information,
 including trade secrets, belonging to Gaussian, Inc.
  
 This software is provided under written license and may be
 used, copied, transmitted, or stored only in accord with that
 written license.
  
 The following legend is applicable only to US Government
 contracts under FAR:
  
                    RESTRICTED RIGHTS LEGEND
  
 Use, reproduction and disclosure by the US Government is
 subject to restrictions as set forth in subparagraphs (a)
 and (c) of the Commercial Computer Software - Restricted
 Rights clause in FAR 52.227-19.
  
 Gaussian, Inc.
 340 Quinnipiac St., Bldg. 40, Wallingford CT 06492
  
  
 ---------------------------------------------------------------
 Warning -- This program may not be used in any manner that
 competes with the business of Gaussian, Inc. or will provide
 assistance to any competitor of Gaussian, Inc.  The licensee
 of this program is prohibited from giving any competitor of
 Gaussian, Inc. access to this program.  By using this program,
 the user acknowledges that Gaussian, Inc. is engaged in the
 business of creating and licensing software in the field of
 computational chemistry and represents and warrants to the
 licensee that it is not a competitor of Gaussian, Inc. and that
 it will not use this program in any manner prohibited above.
 ---------------------------------------------------------------
  

 Cite this work as:
 Gaussian 09, Revision A.02,
 M. J. Frisch, G. W. Trucks, H. B. Schlegel, G. E. Scuseria, 
 M. A. Robb, J. R. Cheeseman, G. Scalmani, V. Barone, B. Mennucci, 
 G. A. Petersson, H. Nakatsuji, M. Caricato, X. Li, H. P. Hratchian, 
 A. F. Izmaylov, J. Bloino, G. Zheng, J. L. Sonnenberg, M. Hada, 
 M. Ehara, K. Toyota, R. Fukuda, J. Hasegawa, M. Ishida, T. Nakajima, 
 Y. Honda, O. Kitao, H. Nakai, T. Vreven, J. A. Montgomery, Jr., 
 J. E. Peralta, F. Ogliaro, M. Bearpark, J. J. Heyd, E. Brothers, 
 K. N. Kudin, V. N. Staroverov, R. Kobayashi, J. Normand, 
 K. Raghavachari, A. Rendell, J. C. Burant, S. S. Iyengar, J. Tomasi, 
 M. Cossi, N. Rega, J. M. Millam, M. Klene, J. E. Knox, J. B. Cross, 
 V. Bakken, C. Adamo, J. Jaramillo, R. Gomperts, R. E. Stratmann, 
 O. Yazyev, A. J. Austin, R. Cammi, C. Pomelli, J. W. Ochterski, 
 R. L. Martin, K. Morokuma, V. G. Zakrzewski, G. A. Voth, 
 P. Salvador, J. J. Dannenberg, S. Dapprich, A. D. Daniels, 
 O. Farkas, J. B. Foresman, J. V. Ortiz, J. Cioslowski, 
 and D. J. Fox, Gaussian, Inc., Wallingford CT, 2009.
 
 ******************************************
 Gaussian 09:  EM64L-G09RevA.02 11-Jun-2009
                 8-Mar-2017 
 ******************************************
 %chk=BAM_FOR_3.chk
 %nprocshared=2
 Will use up to    2 processors via shared memory.
 --------------------------------------
 # opt M062X/6-311+G* geom=connectivity
 --------------------------------------
 1/14=-1,18=20,19=15,26=3,38=1,57=2/1,3;
 2/9=110,12=2,17=6,18=5,40=1/2;
 3/5=4,6=6,7=11,11=2,16=1,25=1,30=1,71=1,74=-55/1,2,3;
 4//1;
 5/5=2,38=5/2;
 6/7=2,8=2,9=2,10=2,28=1/1;
 7//1,2,3,16;
 1/14=-1,18=20,19=15/3(2);
 2/9=110/2;
 99//99;
 2/9=110/2;
 3/5=4,6=6,7=11,11=2,16=1,25=1,30=1,71=1,74=-55/1,2,3;
 4/5=5,16=3/1;
 5/5=2,38=5/2;
 7//1,2,3,16;
 1/14=-1,18=20,19=15/3(-5);
 2/9=110/2;
 6/7=2,8=2,9=2,10=2,19=2,28=1/1;
 99/9=1/99;
 -------------------
 Title Card Required
 -------------------
 Symbolic Z-matrix:
 Charge =  0 Multiplicity = 1
 C                     0.96731  -0.34469   1.91052 
 H                     1.22572  -1.35375   2.15533 
 H                     1.40625  -0.08208   0.9707 
 H                    -0.09688  -0.255     1.84462 
 C                     1.4953    0.60055   3.00567 
 H                     1.23689   1.60961   2.76087 
 H                     1.05635   0.33794   3.94549 
 C                     3.02694   0.47146   3.10052 
 H                     3.46588   0.73406   2.16069 
 H                     3.28535  -0.5376    3.34532 
 C                     3.55493   1.4167    4.19567 
 H                     3.11599   1.15409   5.13549 
 H                     3.29652   2.42575   3.95086 
 N                     5.01695   1.29347   4.2862 
 H                     5.3598    1.90726   4.99734 
 H                     5.25845   0.35043   4.51499 
 H                     5.42718   1.5389    3.40786 
 C                     6.27042  -0.10998   2.58143 
 H                     6.79716   0.63494   3.14048 
 O                     5.07084   0.08116   2.25273 
 O                     6.85051  -1.1772    2.25264 
 

 GradGradGradGradGradGradGradGradGradGradGradGradGradGradGradGradGradGrad
 Berny optimization.
 Initialization pass.
                           ----------------------------
                           !    Initial Parameters    !
                           ! (Angstroms and Degrees)  !
 --------------------------                            --------------------------
 ! Name  Definition              Value          Derivative Info.                !
 --------------------------------------------------------------------------------
 ! R1    R(1,2)                  1.07           estimate D2E/DX2                !
 ! R2    R(1,3)                  1.07           estimate D2E/DX2                !
 ! R3    R(1,4)                  1.07           estimate D2E/DX2                !
 ! R4    R(1,5)                  1.54           estimate D2E/DX2                !
 ! R5    R(5,6)                  1.07           estimate D2E/DX2                !
 ! R6    R(5,7)                  1.07           estimate D2E/DX2                !
 ! R7    R(5,8)                  1.54           estimate D2E/DX2                !
 ! R8    R(8,9)                  1.07           estimate D2E/DX2                !
 ! R9    R(8,10)                 1.07           estimate D2E/DX2                !
 ! R10   R(8,11)                 1.54           estimate D2E/DX2                !
 ! R11   R(9,20)                 1.7351         estimate D2E/DX2                !
 ! R12   R(11,12)                1.07           estimate D2E/DX2                !
 ! R13   R(11,13)                1.07           estimate D2E/DX2                !
 ! R14   R(11,14)                1.47           estimate D2E/DX2                !
 ! R15   R(14,15)                1.0            estimate D2E/DX2                !
 ! R16   R(14,16)                1.0            estimate D2E/DX2                !
 ! R17   R(14,17)                1.0            estimate D2E/DX2                !
 ! R18   R(17,18)                2.028          estimate D2E/DX2                !
 ! R19   R(17,20)                1.8938         estimate D2E/DX2                !
 ! R20   R(18,19)                1.07           estimate D2E/DX2                !
 ! R21   R(18,20)                1.2584         estimate D2E/DX2                !
 ! R22   R(18,21)                1.2584         estimate D2E/DX2                !
 ! A1    A(2,1,3)              109.4712         estimate D2E/DX2                !
 ! A2    A(2,1,4)              109.4712         estimate D2E/DX2                !
 ! A3    A(2,1,5)              109.4712         estimate D2E/DX2                !
 ! A4    A(3,1,4)              109.4712         estimate D2E/DX2                !
 ! A5    A(3,1,5)              109.4712         estimate D2E/DX2                !
 ! A6    A(4,1,5)              109.4712         estimate D2E/DX2                !
 ! A7    A(1,5,6)              109.4712         estimate D2E/DX2                !
 ! A8    A(1,5,7)              109.4712         estimate D2E/DX2                !
 ! A9    A(1,5,8)              109.4712         estimate D2E/DX2                !
 ! A10   A(6,5,7)              109.4712         estimate D2E/DX2                !
 ! A11   A(6,5,8)              109.4712         estimate D2E/DX2                !
 ! A12   A(7,5,8)              109.4712         estimate D2E/DX2                !
 ! A13   A(5,8,9)              109.4712         estimate D2E/DX2                !
 ! A14   A(5,8,10)             109.4712         estimate D2E/DX2                !
 ! A15   A(5,8,11)             109.4712         estimate D2E/DX2                !
 ! A16   A(9,8,10)             109.4712         estimate D2E/DX2                !
 ! A17   A(9,8,11)             109.4712         estimate D2E/DX2                !
 ! A18   A(10,8,11)            109.4712         estimate D2E/DX2                !
 ! A19   A(8,9,20)             103.9168         estimate D2E/DX2                !
 ! A20   A(8,11,12)            109.4712         estimate D2E/DX2                !
 ! A21   A(8,11,13)            109.4712         estimate D2E/DX2                !
 ! A22   A(8,11,14)            109.4712         estimate D2E/DX2                !
 ! A23   A(12,11,13)           109.4712         estimate D2E/DX2                !
 ! A24   A(12,11,14)           109.4712         estimate D2E/DX2                !
 ! A25   A(13,11,14)           109.4712         estimate D2E/DX2                !
 ! A26   A(11,14,15)           109.4712         estimate D2E/DX2                !
 ! A27   A(11,14,16)           109.4712         estimate D2E/DX2                !
 ! A28   A(11,14,17)           109.4712         estimate D2E/DX2                !
 ! A29   A(15,14,16)           109.4712         estimate D2E/DX2                !
 ! A30   A(15,14,17)           109.4712         estimate D2E/DX2                !
 ! A31   A(16,14,17)           109.4712         estimate D2E/DX2                !
 ! A32   A(14,17,18)           109.2055         estimate D2E/DX2                !
 ! A33   A(14,17,20)           105.6434         estimate D2E/DX2                !
 ! A34   A(17,18,19)            54.952          estimate D2E/DX2                !
 ! A35   A(17,18,21)           170.9947         estimate D2E/DX2                !
 ! A36   A(19,18,20)           120.0            estimate D2E/DX2                !
 ! A37   A(19,18,21)           120.0            estimate D2E/DX2                !
 ! A38   A(20,18,21)           120.0            estimate D2E/DX2                !
 ! A39   A(9,20,17)             85.2248         estimate D2E/DX2                !
 ! A40   A(9,20,18)            162.3181         estimate D2E/DX2                !
 ! D1    D(2,1,5,6)            180.0            estimate D2E/DX2                !
 ! D2    D(2,1,5,7)            -60.0            estimate D2E/DX2                !
 ! D3    D(2,1,5,8)             60.0            estimate D2E/DX2                !
 ! D4    D(3,1,5,6)             60.0            estimate D2E/DX2                !
 ! D5    D(3,1,5,7)           -180.0            estimate D2E/DX2                !
 ! D6    D(3,1,5,8)            -60.0            estimate D2E/DX2                !
 ! D7    D(4,1,5,6)            -60.0            estimate D2E/DX2                !
 ! D8    D(4,1,5,7)             60.0            estimate D2E/DX2                !
 ! D9    D(4,1,5,8)            180.0            estimate D2E/DX2                !
 ! D10   D(1,5,8,9)             60.0            estimate D2E/DX2                !
 ! D11   D(1,5,8,10)           -60.0            estimate D2E/DX2                !
 ! D12   D(1,5,8,11)          -180.0            estimate D2E/DX2                !
 ! D13   D(6,5,8,9)            -60.0            estimate D2E/DX2                !
 ! D14   D(6,5,8,10)           180.0            estimate D2E/DX2                !
 ! D15   D(6,5,8,11)            60.0            estimate D2E/DX2                !
 ! D16   D(7,5,8,9)            180.0            estimate D2E/DX2                !
 ! D17   D(7,5,8,10)            60.0            estimate D2E/DX2                !
 ! D18   D(7,5,8,11)           -60.0            estimate D2E/DX2                !
 ! D19   D(5,8,9,20)          -162.8841         estimate D2E/DX2                !
 ! D20   D(10,8,9,20)          -42.8841         estimate D2E/DX2                !
 ! D21   D(11,8,9,20)           77.1159         estimate D2E/DX2                !
 ! D22   D(5,8,11,12)           60.0            estimate D2E/DX2                !
 ! D23   D(5,8,11,13)          -60.0            estimate D2E/DX2                !
 ! D24   D(5,8,11,14)          180.0            estimate D2E/DX2                !
 ! D25   D(9,8,11,12)          180.0            estimate D2E/DX2                !
 ! D26   D(9,8,11,13)           60.0            estimate D2E/DX2                !
 ! D27   D(9,8,11,14)          -60.0            estimate D2E/DX2                !
 ! D28   D(10,8,11,12)         -60.0            estimate D2E/DX2                !
 ! D29   D(10,8,11,13)         180.0            estimate D2E/DX2                !
 ! D30   D(10,8,11,14)          60.0            estimate D2E/DX2                !
 ! D31   D(8,9,20,17)          -75.0443         estimate D2E/DX2                !
 ! D32   D(8,9,20,18)          -69.177          estimate D2E/DX2                !
 ! D33   D(8,11,14,15)         180.0            estimate D2E/DX2                !
 ! D34   D(8,11,14,16)         -60.0            estimate D2E/DX2                !
 ! D35   D(8,11,14,17)          60.0            estimate D2E/DX2                !
 ! D36   D(12,11,14,15)        -60.0            estimate D2E/DX2                !
 ! D37   D(12,11,14,16)         60.0            estimate D2E/DX2                !
 ! D38   D(12,11,14,17)        180.0            estimate D2E/DX2                !
 ! D39   D(13,11,14,15)         60.0            estimate D2E/DX2                !
 ! D40   D(13,11,14,16)        180.0            estimate D2E/DX2                !
 ! D41   D(13,11,14,17)        -60.0            estimate D2E/DX2                !
 ! D42   D(11,14,17,18)       -112.9344         estimate D2E/DX2                !
 ! D43   D(11,14,17,20)        -74.0117         estimate D2E/DX2                !
 ! D44   D(15,14,17,18)        127.0656         estimate D2E/DX2                !
 ! D45   D(15,14,17,20)        165.9883         estimate D2E/DX2                !
 ! D46   D(16,14,17,18)          7.0656         estimate D2E/DX2                !
 ! D47   D(16,14,17,20)         45.9883         estimate D2E/DX2                !
 ! D48   D(14,17,18,19)        -97.6413         estimate D2E/DX2                !
 ! D49   D(14,17,18,21)        -39.2613         estimate D2E/DX2                !
 ! D50   D(14,17,20,9)          76.8653         estimate D2E/DX2                !
 ! D51   D(19,18,20,9)         -13.9508         estimate D2E/DX2                !
 ! D52   D(21,18,20,9)         166.0492         estimate D2E/DX2                !
 --------------------------------------------------------------------------------
 Trust Radius=3.00D-01 FncErr=1.00D-07 GrdErr=1.00D-06
 Number of steps in this run= 124 maximum allowed number of steps= 126.
 GradGradGradGradGradGradGradGradGradGradGradGradGradGradGradGradGradGrad

                          Input orientation:                          
 ---------------------------------------------------------------------
 Center     Atomic      Atomic             Coordinates (Angstroms)
 Number     Number       Type             X           Y           Z
 ---------------------------------------------------------------------
      1          6           0        0.967311   -0.344691    1.910521
      2          1           0        1.225718   -1.353748    2.155326
      3          1           0        1.406253   -0.082084    0.970697
      4          1           0       -0.096885   -0.254998    1.844622
      5          6           0        1.495296    0.600548    3.005671
      6          1           0        1.236889    1.609605    2.760865
      7          1           0        1.056354    0.337942    3.945494
      8          6           0        3.026942    0.471457    3.100515
      9          1           0        3.465884    0.734064    2.160692
     10          1           0        3.285349   -0.537600    3.345321
     11          6           0        3.554927    1.416696    4.195666
     12          1           0        3.115985    1.154090    5.135489
     13          1           0        3.296520    2.425753    3.950860
     14          7           0        5.016953    1.293473    4.286199
     15          1           0        5.359801    1.907264    4.997336
     16          1           0        5.258455    0.350429    4.514989
     17          1           0        5.427179    1.538900    3.407860
     18          6           0        6.270418   -0.109980    2.581426
     19          1           0        6.797158    0.634938    3.140480
     20          8           0        5.070838    0.081159    2.252727
     21          8           0        6.850513   -1.177200    2.252635
 ---------------------------------------------------------------------
                    Distance matrix (angstroms):
                    1          2          3          4          5
     1  C    0.000000
     2  H    1.070000   0.000000
     3  H    1.070000   1.747303   0.000000
     4  H    1.070000   1.747303   1.747303   0.000000
     5  C    1.540000   2.148263   2.148263   2.148263   0.000000
     6  H    2.148263   3.024610   2.468846   2.468846   1.070000
     7  H    2.148263   2.468846   3.024610   2.468846   1.070000
     8  C    2.514809   2.732978   2.732978   3.444314   1.540000
     9  H    2.732978   3.062243   2.514809   3.710993   2.148263
    10  H    2.732978   2.514809   3.062243   3.710993   2.148263
    11  C    3.875582   4.154945   4.154945   4.653783   2.514809
    12  H    4.154945   4.329403   4.668704   4.810184   2.732978
    13  H    4.154945   4.668704   4.329403   4.810184   2.732978
    14  N    4.972628   5.091352   5.091352   5.874555   3.810770
    15  H    5.821830   5.983466   5.983466   6.662612   4.539673
    16  H    5.067580   4.973450   5.252479   6.014737   4.062261
    17  H    5.067580   5.252479   4.973450   6.014737   4.062261
    18  C    5.350528   5.213207   5.123995   6.411432   4.846300
    19  H    6.038178   5.997195   5.855249   7.071001   5.303687
    20  O    4.139733   4.105289   3.885799   5.194700   3.690690
    21  O    5.951654   5.628407   5.699352   7.020205   5.692609
                    6          7          8          9         10
     6  H    0.000000
     7  H    1.747303   0.000000
     8  C    2.148263   2.148263   0.000000
     9  H    2.468846   3.024610   1.070000   0.000000
    10  H    3.024610   2.468846   1.070000   1.747303   0.000000
    11  C    2.732978   2.732978   1.540000   2.148263   2.148263
    12  H    3.062243   2.514809   2.148263   3.024610   2.468846
    13  H    2.514809   3.062243   2.148263   2.468846   3.024610
    14  N    4.088455   4.088455   2.457987   2.690081   2.690081
    15  H    4.699872   4.699872   3.331921   3.606919   3.606919
    16  H    4.564588   4.240535   2.644813   2.983823   2.459648
    17  H    4.240535   4.564588   2.644813   2.459648   2.983823
    18  C    5.322179   5.408122   3.335815   2.958858   3.110793
    19  H    5.657798   5.804575   3.773970   3.473787   3.708047
    20  O    4.158547   4.364342   2.246906   1.735117   2.182796
    21  O    6.287874   6.223641   4.249314   3.888071   3.783312
                   11         12         13         14         15
    11  C    0.000000
    12  H    1.070000   0.000000
    13  H    1.070000   1.747303   0.000000
    14  N    1.470000   2.086720   2.086720   0.000000
    15  H    2.034920   2.370879   2.370879   1.000000   0.000000
    16  H    2.034920   2.370879   2.911082   1.000000   1.632993
    17  H    2.034920   2.911082   2.370879   1.000000   1.632993
    18  C    3.508619   4.251066   4.141179   2.539116   3.276450
    19  H    3.498089   4.219077   4.014748   2.217086   2.670716
    20  O    2.802973   3.644578   3.395436   2.368041   3.309236
    21  O    4.622180   5.262362   5.338174   3.688028   4.389707
                   16         17         18         19         20
    16  H    0.000000
    17  H    1.632993   0.000000
    18  C    2.230407   2.028016   0.000000
    19  H    2.082746   1.662973   1.070000   0.000000
    20  O    2.285944   1.893758   1.258400   2.018653   0.000000
    21  O    3.160149   3.276831   1.258400   2.018653   2.179613
                   21
    21  O    0.000000
 Stoichiometry    C5H13NO2
 Framework group  C1[X(C5H13NO2)]
 Deg. of freedom    57
 Full point group                 C1      NOp   1
 Largest Abelian subgroup         C1      NOp   1
 Largest concise Abelian subgroup C1      NOp   1
                         Standard orientation:                         
 ---------------------------------------------------------------------
 Center     Atomic      Atomic             Coordinates (Angstroms)
 Number     Number       Type             X           Y           Z
 ---------------------------------------------------------------------
      1          6           0       -2.964098   -1.391212    0.030456
      2          1           0       -2.600640   -1.876073    0.912334
      3          1           0       -2.575743   -1.886673   -0.834759
      4          1           0       -4.033186   -1.432766    0.015474
      5          6           0       -2.507458    0.079528    0.028040
      6          1           0       -2.870916    0.564389   -0.853837
      7          1           0       -2.895813    0.574990    0.893256
      8          6           0       -0.968771    0.139335    0.049604
      9          1           0       -0.580417   -0.356127   -0.815612
     10          1           0       -0.605313   -0.345527    0.931481
     11          6           0       -0.512132    1.610074    0.047187
     12          1           0       -0.900486    2.105536    0.912403
     13          1           0       -0.875590    2.094936   -0.834690
     14          7           0        0.956615    1.667163    0.067771
     15          1           0        1.253134    2.622188    0.066202
     16          1           0        1.296295    1.214021    0.891956
     17          1           0        1.319563    1.204114   -0.740842
     18          6           0        2.303434   -0.472810   -0.163975
     19          1           0        2.766223    0.467285   -0.380651
     20          8           0        1.083380   -0.646976   -0.418349
     21          8           0        2.979212   -1.404265    0.345225
 ---------------------------------------------------------------------
 Rotational constants (GHZ):      2.8807548      0.9972469      0.7697686
 Standard basis: 6-311+G(d) (5D, 7F)
 There are   215 symmetry adapted basis functions of A   symmetry.
 Integral buffers will be    131072 words long.
 Raffenetti 2 integral format.
 Two-electron integral symmetry is turned on.
   215 basis functions,   353 primitive gaussians,   223 cartesian basis functions
    33 alpha electrons       33 beta electrons
       nuclear repulsion energy       406.1766345506 Hartrees.
 NAtoms=   21 NActive=   21 NUniq=   21 SFac= 7.50D-01 NAtFMM=   80 NAOKFM=F Big=F
 One-electron integrals computed using PRISM.
 NBasis=   215 RedAO= T  NBF=   215
 NBsUse=   215 1.00D-06 NBFU=   215
 Harris functional with IExCor= 1009 diagonalized for initial guess.
 ExpMin= 4.38D-02 ExpMax= 8.59D+03 ExpMxC= 1.30D+03 IAcc=2 IRadAn=         0 AccDes= 0.00D+00
 HarFok:  IExCor= 1009 AccDes= 0.00D+00 IRadAn=         0 IDoV= 1
 ScaDFX=  1.000000  1.000000  1.000000  1.000000
 FoFCou: FMM=F IPFlag=           0 FMFlag=      100000 FMFlg1=           0
         NFxFlg=           0 DoJE=T BraDBF=F KetDBF=T FulRan=T
         Omega=  0.000000  0.000000  1.000000  0.000000  0.000000 ICntrl=     500 IOpCl=  0
         NMat0=    1 NMatS0=    1 NMatT0=    0 NMatD0=    1 NMtDS0=    0 NMtDT0=    0
         I1Cent=           4 NGrid=           0.
 Petite list used in FoFCou.
 Initial guess orbital symmetries:
       Occupied  (A) (A) (A) (A) (A) (A) (A) (A) (A) (A) (A) (A)
                 (A) (A) (A) (A) (A) (A) (A) (A) (A) (A) (A) (A)
                 (A) (A) (A) (A) (A) (A) (A) (A) (A)
       Virtual   (A) (A) (A) (A) (A) (A) (A) (A) (A) (A) (A) (A)
                 (A) (A) (A) (A) (A) (A) (A) (A) (A) (A) (A) (A)
                 (A) (A) (A) (A) (A) (A) (A) (A) (A) (A) (A) (A)
                 (A) (A) (A) (A) (A) (A) (A) (A) (A) (A) (A) (A)
                 (A) (A) (A) (A) (A) (A) (A) (A) (A) (A) (A) (A)
                 (A) (A) (A) (A) (A) (A) (A) (A) (A) (A) (A) (A)
                 (A) (A) (A) (A) (A) (A) (A) (A) (A) (A) (A) (A)
                 (A) (A) (A) (A) (A) (A) (A) (A) (A) (A) (A) (A)
                 (A) (A) (A) (A) (A) (A) (A) (A) (A) (A) (A) (A)
                 (A) (A) (A) (A) (A) (A) (A) (A) (A) (A) (A) (A)
                 (A) (A) (A) (A) (A) (A) (A) (A) (A) (A) (A) (A)
                 (A) (A) (A) (A) (A) (A) (A) (A) (A) (A) (A) (A)
                 (A) (A) (A) (A) (A) (A) (A) (A) (A) (A) (A) (A)
                 (A) (A) (A) (A) (A) (A) (A) (A) (A) (A) (A) (A)
                 (A) (A) (A) (A) (A) (A) (A) (A) (A) (A) (A) (A)
                 (A) (A)
 The electronic state of the initial guess is 1-A.
 Requested convergence on RMS density matrix=1.00D-08 within 128 cycles.
 Requested convergence on MAX density matrix=1.00D-06.
 Requested convergence on             energy=1.00D-06.
 No special actions if energy rises.
 SCF Done:  E(RM062X) =  -403.383934801     A.U. after   15 cycles
             Convg  =    0.6055D-08             -V/T =  2.0015

 **********************************************************************

            Population analysis using the SCF density.

 **********************************************************************

 Orbital symmetries:
       Occupied  (A) (A) (A) (A) (A) (A) (A) (A) (A) (A) (A) (A)
                 (A) (A) (A) (A) (A) (A) (A) (A) (A) (A) (A) (A)
                 (A) (A) (A) (A) (A) (A) (A) (A) (A)
       Virtual   (A) (A) (A) (A) (A) (A) (A) (A) (A) (A) (A) (A)
                 (A) (A) (A) (A) (A) (A) (A) (A) (A) (A) (A) (A)
                 (A) (A) (A) (A) (A) (A) (A) (A) (A) (A) (A) (A)
                 (A) (A) (A) (A) (A) (A) (A) (A) (A) (A) (A) (A)
                 (A) (A) (A) (A) (A) (A) (A) (A) (A) (A) (A) (A)
                 (A) (A) (A) (A) (A) (A) (A) (A) (A) (A) (A) (A)
                 (A) (A) (A) (A) (A) (A) (A) (A) (A) (A) (A) (A)
                 (A) (A) (A) (A) (A) (A) (A) (A) (A) (A) (A) (A)
                 (A) (A) (A) (A) (A) (A) (A) (A) (A) (A) (A) (A)
                 (A) (A) (A) (A) (A) (A) (A) (A) (A) (A) (A) (A)
                 (A) (A) (A) (A) (A) (A) (A) (A) (A) (A) (A) (A)
                 (A) (A) (A) (A) (A) (A) (A) (A) (A) (A) (A) (A)
                 (A) (A) (A) (A) (A) (A) (A) (A) (A) (A) (A) (A)
                 (A) (A) (A) (A) (A) (A) (A) (A) (A) (A) (A) (A)
                 (A) (A) (A) (A) (A) (A) (A) (A) (A) (A) (A) (A)
                 (A) (A)
 The electronic state is 1-A.
 Alpha  occ. eigenvalues --  -19.53663 -19.52707 -14.89633 -10.62252 -10.59625
 Alpha  occ. eigenvalues --  -10.53100 -10.52895 -10.51520  -1.17578  -1.12505
 Alpha  occ. eigenvalues --   -1.02019  -0.91846  -0.85039  -0.76046  -0.72189
 Alpha  occ. eigenvalues --   -0.71846  -0.68518  -0.64487  -0.59232  -0.57023
 Alpha  occ. eigenvalues --   -0.52444  -0.51559  -0.50338  -0.46550  -0.45267
 Alpha  occ. eigenvalues --   -0.43889  -0.43286  -0.40590  -0.40032  -0.37962
 Alpha  occ. eigenvalues --   -0.31130  -0.28350  -0.26893
 Alpha virt. eigenvalues --   -0.03815   0.00355   0.00830   0.01671   0.03195
 Alpha virt. eigenvalues --    0.04371   0.04744   0.06007   0.06474   0.07131
 Alpha virt. eigenvalues --    0.08133   0.08190   0.08815   0.09048   0.10658
 Alpha virt. eigenvalues --    0.11532   0.12078   0.12852   0.13111   0.14216
 Alpha virt. eigenvalues --    0.14505   0.15099   0.16035   0.17392   0.17911
 Alpha virt. eigenvalues --    0.19541   0.19787   0.20845   0.22150   0.22651
 Alpha virt. eigenvalues --    0.23530   0.24282   0.25492   0.25573   0.26487
 Alpha virt. eigenvalues --    0.26548   0.28552   0.28955   0.29523   0.30160
 Alpha virt. eigenvalues --    0.32107   0.32382   0.33245   0.33818   0.34855
 Alpha virt. eigenvalues --    0.35798   0.36140   0.38193   0.41228   0.42321
 Alpha virt. eigenvalues --    0.43561   0.44549   0.45600   0.45819   0.49271
 Alpha virt. eigenvalues --    0.50782   0.52174   0.54234   0.54358   0.56476
 Alpha virt. eigenvalues --    0.58980   0.60704   0.63421   0.64690   0.65784
 Alpha virt. eigenvalues --    0.66499   0.67757   0.69441   0.70379   0.70940
 Alpha virt. eigenvalues --    0.73375   0.74111   0.74931   0.75571   0.76842
 Alpha virt. eigenvalues --    0.78811   0.79292   0.80020   0.81322   0.81596
 Alpha virt. eigenvalues --    0.83068   0.85007   0.89882   0.95681   1.01064
 Alpha virt. eigenvalues --    1.05380   1.08280   1.10472   1.14942   1.19044
 Alpha virt. eigenvalues --    1.20339   1.23182   1.24385   1.26402   1.29817
 Alpha virt. eigenvalues --    1.31403   1.33633   1.37085   1.42796   1.49971
 Alpha virt. eigenvalues --    1.51869   1.55771   1.57085   1.59166   1.61216
 Alpha virt. eigenvalues --    1.62444   1.63631   1.64241   1.68121   1.69008
 Alpha virt. eigenvalues --    1.72551   1.74245   1.75826   1.81792   1.84142
 Alpha virt. eigenvalues --    1.85368   1.87728   1.90629   1.98780   2.01402
 Alpha virt. eigenvalues --    2.04728   2.05677   2.06801   2.14465   2.19352
 Alpha virt. eigenvalues --    2.26773   2.37262   2.45677   2.54187   2.56064
 Alpha virt. eigenvalues --    2.58110   2.58254   2.58669   2.62754   2.66267
 Alpha virt. eigenvalues --    2.67490   2.69960   2.72423   2.77303   2.84741
 Alpha virt. eigenvalues --    2.85250   2.99028   3.00248   3.01827   3.04263
 Alpha virt. eigenvalues --    3.05766   3.08455   3.15399   3.18865   3.20517
 Alpha virt. eigenvalues --    3.22002   3.31769   3.33233   3.34019   3.35231
 Alpha virt. eigenvalues --    3.37252   3.40587   3.44509   3.46451   3.74984
 Alpha virt. eigenvalues --    3.77489   3.89367   3.95346   4.05452   4.09229
 Alpha virt. eigenvalues --    4.20133   4.22119   4.53790   5.23626   5.25861
 Alpha virt. eigenvalues --    5.29071   5.37962   5.69526   6.01998  23.56264
 Alpha virt. eigenvalues --   23.68684  23.77600  23.80565  23.94198  35.37998
 Alpha virt. eigenvalues --   50.08878  50.15791
          Condensed to atoms (all electrons):
              1          2          3          4          5          6
     1  C    6.105037   0.372886   0.382054   0.395163  -0.357013  -0.025363
     2  H    0.372886   0.446015  -0.030254  -0.026858   0.028049   0.006349
     3  H    0.382054  -0.030254   0.436963  -0.026347   0.037468  -0.007733
     4  H    0.395163  -0.026858  -0.026347   0.447054  -0.139279  -0.003895
     5  C   -0.357013   0.028049   0.037468  -0.139279   7.195418   0.389642
     6  H   -0.025363   0.006349  -0.007733  -0.003895   0.389642   0.476507
     7  H   -0.029751  -0.008387   0.006420  -0.004314   0.418279  -0.041442
     8  C    0.399930  -0.057548  -0.073629   0.093264  -1.276192  -0.018585
     9  H    0.021718  -0.001018   0.006014  -0.000608  -0.106453  -0.007123
    10  H    0.028701   0.003739  -0.000746  -0.000371  -0.050124   0.007454
    11  C   -0.359457   0.003036   0.001993   0.003385   0.515206  -0.027940
    12  H    0.007239   0.000074  -0.000025  -0.000044  -0.033838  -0.000166
    13  H    0.007690  -0.000028   0.000039  -0.000035  -0.001448   0.003485
    14  N    0.018133  -0.000694  -0.000096   0.000362  -0.062043  -0.000578
    15  H    0.000166   0.000001   0.000001   0.000001  -0.000754   0.000003
    16  H   -0.001432   0.000006   0.000004  -0.000003   0.011365  -0.000029
    17  H    0.000795   0.000046  -0.000037  -0.000007  -0.017155   0.000260
    18  C    0.000961   0.000152  -0.000588   0.000019  -0.043929   0.000627
    19  H   -0.000358   0.000005   0.000001   0.000000   0.012422   0.000012
    20  O   -0.025311   0.000243  -0.002072   0.000240   0.036604  -0.000148
    21  O    0.002749   0.000054  -0.000038   0.000002  -0.005623   0.000016
              7          8          9         10         11         12
     1  C   -0.029751   0.399930   0.021718   0.028701  -0.359457   0.007239
     2  H   -0.008387  -0.057548  -0.001018   0.003739   0.003036   0.000074
     3  H    0.006420  -0.073629   0.006014  -0.000746   0.001993  -0.000025
     4  H   -0.004314   0.093264  -0.000608  -0.000371   0.003385  -0.000044
     5  C    0.418279  -1.276192  -0.106453  -0.050124   0.515206  -0.033838
     6  H   -0.041442  -0.018585  -0.007123   0.007454  -0.027940  -0.000166
     7  H    0.491010  -0.068986   0.010004  -0.005683  -0.007593   0.003078
     8  C   -0.068986   7.825463   0.495109   0.458185  -1.330987   0.008197
     9  H    0.010004   0.495109   0.427469  -0.002294  -0.033513   0.004484
    10  H   -0.005683   0.458185  -0.002294   0.414384  -0.085523  -0.003880
    11  C   -0.007593  -1.330987  -0.033513  -0.085523   7.522647   0.391772
    12  H    0.003078   0.008197   0.004484  -0.003880   0.391772   0.406076
    13  H   -0.000054  -0.027352  -0.001239   0.004792   0.391648  -0.026738
    14  N    0.000305   0.085587  -0.034681   0.007486  -0.415516  -0.041050
    15  H   -0.000074   0.023160  -0.001182  -0.000627  -0.040406  -0.003554
    16  H    0.000023  -0.020999   0.000608   0.000155   0.012148  -0.007261
    17  H   -0.000167   0.007763   0.007877  -0.001148   0.036063   0.006537
    18  C   -0.000362   0.021327   0.017166   0.000499   0.002198   0.000950
    19  H   -0.000004   0.032561   0.000864   0.000312   0.001421  -0.000067
    20  O   -0.003204  -0.220765  -0.112565  -0.062192  -0.017986  -0.001566
    21  O   -0.000039   0.002092  -0.001023   0.000141  -0.013165   0.000042
             13         14         15         16         17         18
     1  C    0.007690   0.018133   0.000166  -0.001432   0.000795   0.000961
     2  H   -0.000028  -0.000694   0.000001   0.000006   0.000046   0.000152
     3  H    0.000039  -0.000096   0.000001   0.000004  -0.000037  -0.000588
     4  H   -0.000035   0.000362   0.000001  -0.000003  -0.000007   0.000019
     5  C   -0.001448  -0.062043  -0.000754   0.011365  -0.017155  -0.043929
     6  H    0.003485  -0.000578   0.000003  -0.000029   0.000260   0.000627
     7  H   -0.000054   0.000305  -0.000074   0.000023  -0.000167  -0.000362
     8  C   -0.027352   0.085587   0.023160  -0.020999   0.007763   0.021327
     9  H   -0.001239  -0.034681  -0.001182   0.000608   0.007877   0.017166
    10  H    0.004792   0.007486  -0.000627   0.000155  -0.001148   0.000499
    11  C    0.391648  -0.415516  -0.040406   0.012148   0.036063   0.002198
    12  H   -0.026738  -0.041050  -0.003554  -0.007261   0.006537   0.000950
    13  H    0.395212  -0.021477  -0.004310   0.003475  -0.009105  -0.002922
    14  N   -0.021477   7.651890   0.246226   0.315013   0.071835  -0.156261
    15  H   -0.004310   0.246226   0.365263  -0.016216  -0.013959  -0.001806
    16  H    0.003475   0.315013  -0.016216   0.253169  -0.018622   0.006589
    17  H   -0.009105   0.071835  -0.013959  -0.018622   0.393152   0.071706
    18  C   -0.002922  -0.156261  -0.001806   0.006589   0.071706   5.314184
    19  H    0.000486  -0.059710  -0.005520   0.011652   0.010650   0.376611
    20  O   -0.007097   0.065631   0.019737  -0.027105   0.026937  -0.014113
    21  O    0.000009  -0.014352   0.000159  -0.003110   0.007725   0.491987
             19         20         21
     1  C   -0.000358  -0.025311   0.002749
     2  H    0.000005   0.000243   0.000054
     3  H    0.000001  -0.002072  -0.000038
     4  H    0.000000   0.000240   0.000002
     5  C    0.012422   0.036604  -0.005623
     6  H    0.000012  -0.000148   0.000016
     7  H   -0.000004  -0.003204  -0.000039
     8  C    0.032561  -0.220765   0.002092
     9  H    0.000864  -0.112565  -0.001023
    10  H    0.000312  -0.062192   0.000141
    11  C    0.001421  -0.017986  -0.013165
    12  H   -0.000067  -0.001566   0.000042
    13  H    0.000486  -0.007097   0.000009
    14  N   -0.059710   0.065631  -0.014352
    15  H   -0.005520   0.019737   0.000159
    16  H    0.011652  -0.027105  -0.003110
    17  H    0.010650   0.026937   0.007725
    18  C    0.376611  -0.014113   0.491987
    19  H    0.772918  -0.201076  -0.060283
    20  O   -0.201076   9.058251  -0.172460
    21  O   -0.060283  -0.172460   8.190616
 Mulliken atomic charges:
              1
     1  C   -0.944535
     2  H    0.264130
     3  H    0.270609
     4  H    0.262272
     5  C   -0.550603
     6  H    0.248647
     7  H    0.240939
     8  C   -0.357595
     9  H    0.310386
    10  H    0.286738
    11  C   -0.549433
    12  H    0.289739
    13  H    0.294970
    14  N   -0.656010
    15  H    0.433693
    16  H    0.480569
    17  H    0.418855
    18  C   -0.084995
    19  H    0.107102
    20  O   -0.339981
    21  O   -0.425500
 Sum of Mulliken atomic charges =   0.00000
 Mulliken charges with hydrogens summed into heavy atoms:
              1
     1  C   -0.147524
     5  C   -0.061017
     8  C    0.239530
    11  C    0.035277
    14  N    0.677107
    18  C    0.022108
    20  O   -0.339981
    21  O   -0.425500
 Sum of Mulliken charges with hydrogens summed into heavy atoms =   0.00000
 Electronic spatial extent (au):  <R**2>=           1493.1924
 Charge=              0.0000 electrons
 Dipole moment (field-independent basis, Debye):
    X=             -4.1255    Y=             10.1913    Z=              0.0284  Tot=             10.9947
 Quadrupole moment (field-independent basis, Debye-Ang):
   XX=            -67.7546   YY=            -47.3578   ZZ=            -49.7886
   XY=             17.7706   XZ=             -2.3422   YZ=              1.2891
 Traceless Quadrupole moment (field-independent basis, Debye-Ang):
   XX=            -12.7876   YY=              7.6092   ZZ=              5.1784
   XY=             17.7706   XZ=             -2.3422   YZ=              1.2891
 Octapole moment (field-independent basis, Debye-Ang**2):
  XXX=            -45.5628  YYY=             40.8811  ZZZ=              0.9321  XYY=             -1.0986
  XXY=             43.4195  XXZ=            -11.3129  XZZ=              3.5507  YZZ=              5.6103
  YYZ=             -1.3995  XYZ=              4.7791
 Hexadecapole moment (field-independent basis, Debye-Ang**3):
 XXXX=          -1616.4143 YYYY=           -445.9811 ZZZZ=            -94.3544 XXXY=            115.7521
 XXXZ=            -33.8200 YYYX=             49.7967 YYYZ=              4.4304 ZZZX=              1.4160
 ZZZY=              1.2413 XXYY=           -352.7575 XXZZ=           -250.0063 YYZZ=            -91.3083
 XXYZ=             15.0639 YYXZ=             -4.7960 ZZXY=              3.9600
 N-N= 4.061766345506D+02 E-N=-1.755727124786D+03  KE= 4.027781696311D+02
 Calling FoFJK, ICntrl=      2127 FMM=F ISym2X=0 I1Cent= 0 IOpClX= 0 NMat=1 NMatS=1 NMatT=0.
 ***** Axes restored to original set *****
 -------------------------------------------------------------------
 Center     Atomic                   Forces (Hartrees/Bohr)
 Number     Number              X              Y              Z
 -------------------------------------------------------------------
      1        6           0.005705540    0.017705355    0.019550481
      2        1           0.002681300   -0.014827842    0.000538832
      3        1           0.005145300    0.001015949   -0.013975782
      4        1          -0.014964803   -0.001371074   -0.003636848
      5        6           0.017794070   -0.018705975   -0.010157769
      6        1          -0.006363568    0.016370803   -0.001603868
      7        1          -0.011339057   -0.001321170    0.015117238
      8        6          -0.050142210    0.027652202    0.016450188
      9        1          -0.011789399    0.001746850   -0.004454198
     10        1           0.002844477   -0.012725017   -0.000642392
     11        6          -0.018422653   -0.021332180   -0.025583867
     12        1          -0.002271196   -0.001212274    0.015681314
     13        1           0.000526089    0.015557350   -0.000848253
     14        7          -0.021049850    0.028998761    0.034756694
     15        1           0.008906936    0.009238358    0.015979794
     16        1           0.007382819   -0.014405626   -0.000485628
     17        1           0.000103420   -0.001149363   -0.018530646
     18        6           0.001320720   -0.107981313   -0.074876356
     19        1           0.025255047    0.015368720    0.011994518
     20        8           0.047074973    0.022846368   -0.002453367
     21        8           0.011602046    0.038531118    0.027179915
 -------------------------------------------------------------------
 Cartesian Forces:  Max     0.107981313 RMS     0.023768272

 GradGradGradGradGradGradGradGradGradGradGradGradGradGradGradGradGradGrad
 Berny optimization.
 Internal  Forces:  Max     0.052572895 RMS     0.013453820
 Search for a local minimum.
 Step number   1 out of a maximum of  124
 All quantities printed in internal units (Hartrees-Bohrs-Radians)
 Mixed Optimization -- RFO/linear search
 Second derivative matrix not updated -- first step.
     Eigenvalues ---    0.00237   0.00237   0.00461   0.00675   0.00997
     Eigenvalues ---    0.01432   0.02407   0.03010   0.03460   0.03840
     Eigenvalues ---    0.04071   0.04295   0.04803   0.04896   0.05134
     Eigenvalues ---    0.05357   0.05720   0.05720   0.06069   0.07164
     Eigenvalues ---    0.07655   0.07791   0.07880   0.08779   0.09097
     Eigenvalues ---    0.09930   0.11509   0.11701   0.11708   0.12861
     Eigenvalues ---    0.15059   0.15980   0.16000   0.16000   0.16000
     Eigenvalues ---    0.17520   0.20379   0.21948   0.27241   0.28519
     Eigenvalues ---    0.28519   0.34162   0.35625   0.37230   0.37230
     Eigenvalues ---    0.37230   0.37230   0.37230   0.37230   0.37230
     Eigenvalues ---    0.37230   0.37230   0.45929   0.47688   0.47688
     Eigenvalues ---    0.69056   0.802091000.000001000.000001000.00000
     Eigenvalues --- 1000.000001000.000001000.000001000.000001000.00000
     Eigenvalues --- 1000.000001000.000001000.000001000.000001000.00000
     Eigenvalues --- 1000.000001000.000001000.000001000.000001000.00000
     Eigenvalues --- 1000.000001000.000001000.000001000.000001000.00000
     Eigenvalues --- 1000.000001000.000001000.000001000.000001000.00000
     Eigenvalues --- 1000.000001000.000001000.000001000.000001000.00000
     Eigenvalues --- 1000.000001000.000001000.000001000.000001000.00000
     Eigenvalues --- 1000.000001000.000001000.000001000.000001000.00000
     Eigenvalues --- 1000.000001000.000001000.000001000.000001000.00000
     Eigenvalues --- 1000.000001000.000001000.000001000.000001000.00000
     Eigenvalues --- 1000.000001000.000001000.000001000.00000
 RFO step:  Lambda=-7.95358186D-02 EMin= 2.36824098D-03
 Linear search not attempted -- first point.
 Maximum step size (   0.300) exceeded in Quadratic search.
    -- Step size scaled by   0.475
 Iteration  1 RMS(Cart)=  0.05886196 RMS(Int)=  0.00148887
 Iteration  2 RMS(Cart)=  0.00110448 RMS(Int)=  0.00025957
 Iteration  3 RMS(Cart)=  0.00000310 RMS(Int)=  0.00025955
 Iteration  4 RMS(Cart)=  0.00000000 RMS(Int)=  0.00025955
 Variable       Old X    -DE/DX   Delta X   Delta X   Delta X     New X
                                 (Linear)    (Quad)   (Total)
    R1        2.02201   0.01476   0.00000   0.01553   0.01553   2.03754
    R2        2.02201   0.01465   0.00000   0.01541   0.01541   2.03742
    R3        2.02201   0.01498   0.00000   0.01576   0.01576   2.03777
    R4        2.91018  -0.00277   0.00000  -0.00361  -0.00361   2.90657
    R5        2.02201   0.01734   0.00000   0.01824   0.01824   2.04025
    R6        2.02201   0.01825   0.00000   0.01920   0.01920   2.04120
    R7        2.91018   0.00084   0.00000   0.00109   0.00109   2.91127
    R8        2.02201   0.02886   0.00000   0.02894   0.02871   2.05071
    R9        2.02201   0.01254   0.00000   0.01320   0.01320   2.03520
   R10        2.91018  -0.00744   0.00000  -0.00883  -0.00898   2.90120
   R11        3.27890   0.05257   0.00000   0.17157   0.17177   3.45067
   R12        2.02201   0.01501   0.00000   0.01579   0.01579   2.03780
   R13        2.02201   0.01474   0.00000   0.01551   0.01551   2.03752
   R14        2.77790   0.02649   0.00000   0.02836   0.02818   2.80608
   R15        1.88973   0.02009   0.00000   0.01717   0.01717   1.90690
   R16        1.88973   0.01525   0.00000   0.01303   0.01303   1.90276
   R17        1.88973   0.04746   0.00000   0.04171   0.04194   1.93167
   R18        3.83240   0.04803   0.00000   0.14823   0.14821   3.98060
   R19        3.57868  -0.00937   0.00000  -0.00473  -0.00499   3.57370
   R20        2.02201   0.02942   0.00000   0.03095   0.03095   2.05296
   R21        2.37803   0.01583   0.00000   0.01010   0.01061   2.38864
   R22        2.37803  -0.03444   0.00000  -0.01857  -0.01857   2.35946
    A1        1.91063  -0.00334   0.00000  -0.00742  -0.00743   1.90320
    A2        1.91063  -0.00334   0.00000  -0.00625  -0.00629   1.90435
    A3        1.91063   0.00285   0.00000   0.00546   0.00544   1.91607
    A4        1.91063  -0.00313   0.00000  -0.00579  -0.00582   1.90481
    A5        1.91063   0.00250   0.00000   0.00478   0.00476   1.91540
    A6        1.91063   0.00445   0.00000   0.00923   0.00920   1.91983
    A7        1.91063  -0.00021   0.00000  -0.00097  -0.00098   1.90966
    A8        1.91063  -0.00125   0.00000  -0.00251  -0.00253   1.90810
    A9        1.91063   0.00117   0.00000   0.00315   0.00314   1.91378
   A10        1.91063  -0.00182   0.00000  -0.00705  -0.00706   1.90357
   A11        1.91063  -0.00007   0.00000   0.00047   0.00048   1.91111
   A12        1.91063   0.00218   0.00000   0.00690   0.00691   1.91754
   A13        1.91063   0.01169   0.00000   0.02788   0.02803   1.93867
   A14        1.91063  -0.00226   0.00000  -0.00130  -0.00132   1.90932
   A15        1.91063   0.00212   0.00000   0.00108   0.00131   1.91195
   A16        1.91063  -0.00226   0.00000  -0.01000  -0.01014   1.90049
   A17        1.91063  -0.01145   0.00000  -0.02031  -0.02056   1.89007
   A18        1.91063   0.00217   0.00000   0.00264   0.00250   1.91313
   A19        1.81369   0.03458   0.00000   0.06119   0.06123   1.87492
   A20        1.91063   0.00184   0.00000   0.00372   0.00379   1.91443
   A21        1.91063  -0.00032   0.00000   0.00352   0.00396   1.91459
   A22        1.91063   0.00731   0.00000   0.01962   0.01899   1.92963
   A23        1.91063   0.00087   0.00000  -0.00037  -0.00062   1.91001
   A24        1.91063  -0.00312   0.00000  -0.00853  -0.00843   1.90221
   A25        1.91063  -0.00659   0.00000  -0.01796  -0.01791   1.89272
   A26        1.91063  -0.00095   0.00000  -0.00442  -0.00428   1.90635
   A27        1.91063   0.00739   0.00000   0.01126   0.01101   1.92164
   A28        1.91063  -0.00486   0.00000   0.00811   0.00839   1.91902
   A29        1.91063  -0.00159   0.00000  -0.00260  -0.00258   1.90805
   A30        1.91063   0.00408   0.00000  -0.00026  -0.00049   1.91014
   A31        1.91063  -0.00407   0.00000  -0.01208  -0.01208   1.89855
   A32        1.90599   0.03217   0.00000   0.05763   0.05737   1.96336
   A33        1.84382   0.02247   0.00000   0.03432   0.03558   1.87941
   A34        0.95909   0.01319   0.00000   0.03145   0.03160   0.99070
   A35        2.98442  -0.01629   0.00000  -0.02471  -0.02470   2.95972
   A36        2.09440  -0.00944   0.00000  -0.02392  -0.02371   2.07068
   A37        2.09440  -0.02194   0.00000  -0.04223  -0.04185   2.05254
   A38        2.09440   0.03138   0.00000   0.06615   0.06546   2.15985
   A39        1.48745  -0.01291   0.00000  -0.03388  -0.03415   1.45330
   A40        2.83299   0.01005   0.00000   0.03515   0.03540   2.86839
    D1       -3.14159   0.00083   0.00000   0.00299   0.00298  -3.13861
    D2       -1.04720  -0.00229   0.00000  -0.00777  -0.00777  -1.05497
    D3        1.04720   0.00034   0.00000   0.00108   0.00107   1.04827
    D4        1.04720   0.00165   0.00000   0.00582   0.00582   1.05302
    D5        3.14159  -0.00147   0.00000  -0.00495  -0.00493   3.13666
    D6       -1.04720   0.00115   0.00000   0.00390   0.00391  -1.04329
    D7       -1.04720   0.00122   0.00000   0.00433   0.00432  -1.04287
    D8        1.04720  -0.00190   0.00000  -0.00644  -0.00643   1.04077
    D9        3.14159   0.00072   0.00000   0.00241   0.00241  -3.13918
   D10        1.04720   0.00282   0.00000   0.00301   0.00302   1.05022
   D11       -1.04720  -0.00019   0.00000  -0.00103  -0.00107  -1.04827
   D12        3.14159  -0.00276   0.00000  -0.00413  -0.00413   3.13746
   D13       -1.04720   0.00240   0.00000   0.00198   0.00200  -1.04520
   D14        3.14159  -0.00060   0.00000  -0.00206  -0.00210   3.13950
   D15        1.04720  -0.00317   0.00000  -0.00516  -0.00516   1.04204
   D16       -3.14159   0.00334   0.00000   0.00609   0.00613  -3.13547
   D17        1.04720   0.00034   0.00000   0.00206   0.00203   1.04923
   D18       -1.04720  -0.00223   0.00000  -0.00105  -0.00103  -1.04822
   D19       -2.84286  -0.00591   0.00000  -0.02567  -0.02579  -2.86865
   D20       -0.74847  -0.00290   0.00000  -0.01630  -0.01647  -0.76494
   D21        1.34593  -0.00864   0.00000  -0.03162  -0.03164   1.31428
   D22        1.04720  -0.00158   0.00000  -0.00090  -0.00084   1.04636
   D23       -1.04720  -0.00359   0.00000  -0.00488  -0.00486  -1.05206
   D24        3.14159   0.00020   0.00000   0.00295   0.00297  -3.13862
   D25        3.14159   0.00702   0.00000   0.02147   0.02160  -3.12000
   D26        1.04720   0.00501   0.00000   0.01749   0.01757   1.06477
   D27       -1.04720   0.00880   0.00000   0.02532   0.02541  -1.02179
   D28       -1.04720  -0.00144   0.00000  -0.00159  -0.00157  -1.04877
   D29       -3.14159  -0.00345   0.00000  -0.00556  -0.00559   3.13600
   D30        1.04720   0.00034   0.00000   0.00226   0.00224   1.04944
   D31       -1.30977   0.00813   0.00000   0.02114   0.02188  -1.28789
   D32       -1.20737  -0.00111   0.00000   0.00370   0.00302  -1.20434
   D33        3.14159  -0.00249   0.00000   0.00043   0.00061  -3.14098
   D34       -1.04720  -0.00049   0.00000   0.00143   0.00155  -1.04565
   D35        1.04720  -0.00393   0.00000  -0.00150  -0.00128   1.04592
   D36       -1.04720   0.00233   0.00000   0.01177   0.01173  -1.03547
   D37        1.04720   0.00433   0.00000   0.01278   0.01266   1.05986
   D38        3.14159   0.00089   0.00000   0.00984   0.00983  -3.13176
   D39        1.04720  -0.00254   0.00000  -0.00490  -0.00469   1.04251
   D40        3.14159  -0.00054   0.00000  -0.00389  -0.00375   3.13784
   D41       -1.04720  -0.00398   0.00000  -0.00683  -0.00658  -1.05378
   D42       -1.97108  -0.00767   0.00000  -0.01493  -0.01437  -1.98545
   D43       -1.29175  -0.00314   0.00000  -0.02219  -0.02205  -1.31380
   D44        2.21771  -0.00603   0.00000  -0.01431  -0.01397   2.20375
   D45        2.89704  -0.00149   0.00000  -0.02157  -0.02165   2.87540
   D46        0.12332  -0.00409   0.00000  -0.00357  -0.00322   0.12010
   D47        0.80265   0.00045   0.00000  -0.01083  -0.01090   0.79175
   D48       -1.70416  -0.00952   0.00000  -0.03530  -0.03523  -1.73939
   D49       -0.68524  -0.00353   0.00000  -0.00745  -0.00769  -0.69293
   D50        1.34155  -0.02023   0.00000  -0.04139  -0.04028   1.30127
   D51       -0.24349   0.00482   0.00000   0.00649   0.00644  -0.23705
   D52        2.89811  -0.00690   0.00000  -0.00913  -0.00976   2.88835
         Item               Value     Threshold  Converged?
 Maximum Force            0.052573     0.000450     NO 
 RMS     Force            0.013454     0.000300     NO 
 Maximum Displacement     0.324224     0.001800     NO 
 RMS     Displacement     0.059259     0.001200     NO 
 Predicted change in Energy=-3.239422D-02
 GradGradGradGradGradGradGradGradGradGradGradGradGradGradGradGradGradGrad

                          Input orientation:                          
 ---------------------------------------------------------------------
 Center     Atomic      Atomic             Coordinates (Angstroms)
 Number     Number       Type             X           Y           Z
 ---------------------------------------------------------------------
      1          6           0        0.920951   -0.335442    1.918823
      2          1           0        1.161296   -1.355825    2.171032
      3          1           0        1.370759   -0.092346    0.969613
      4          1           0       -0.149662   -0.234304    1.838938
      5          6           0        1.458959    0.610107    3.006116
      6          1           0        1.212548    1.629412    2.749306
      7          1           0        1.000484    0.364010    3.952678
      8          6           0        2.988777    0.461714    3.111080
      9          1           0        3.470429    0.710592    2.171022
     10          1           0        3.232608   -0.555015    3.369346
     11          6           0        3.523875    1.410715    4.192773
     12          1           0        3.075126    1.168475    5.142929
     13          1           0        3.285385    2.429548    3.932709
     14          7           0        4.999119    1.288790    4.310084
     15          1           0        5.328816    1.919464    5.025488
     16          1           0        5.249882    0.345234    4.556372
     17          1           0        5.440574    1.524624    3.418801
     18          6           0        6.393242   -0.129835    2.528690
     19          1           0        6.925143    0.630899    3.093124
     20          8           0        5.177461    0.066337    2.243853
     21          8           0        7.022085   -1.161138    2.212615
 ---------------------------------------------------------------------
                    Distance matrix (angstroms):
                    1          2          3          4          5
     1  C    0.000000
     2  H    1.078219   0.000000
     3  H    1.078157   1.756036   0.000000
     4  H    1.078342   1.756903   1.757144   0.000000
     5  C    1.538091   2.156585   2.156053   2.159397   0.000000
     6  H    2.152994   3.041162   2.481287   2.481496   1.079653
     7  H    2.152237   2.481523   3.040401   2.479659   1.080159
     8  C    2.516514   2.743507   2.740593   3.457252   1.540578
     9  H    2.767243   3.098738   2.548865   3.756084   2.180250
    10  H    2.737880   2.523408   3.072338   3.726225   2.152969
    11  C    3.872355   4.162086   4.157387   4.662779   2.512570
    12  H    4.158978   4.343617   4.680929   4.825288   2.736739
    13  H    4.158300   4.684475   4.336552   4.824887   2.739484
    14  N    4.998771   5.128198   5.121648   5.910695   3.833233
    15  H    5.845105   6.020271   6.013628   6.693769   4.557200
    16  H    5.114649   5.029909   5.301313   6.072511   4.104211
    17  H    5.112414   5.307177   5.017620   6.069640   4.106081
    18  C    5.510008   5.385557   5.259036   6.579989   5.012244
    19  H    6.193797   6.165975   5.990289   7.237017   5.466915
    20  O    4.287768   4.261153   4.017444   5.350942   3.834578
    21  O    6.163759   5.864169   5.884289   7.241036   5.891971
                    6          7          8          9         10
     6  H    0.000000
     7  H    1.759067   0.000000
     8  C    2.156244   2.161283   0.000000
     9  H    2.505328   3.065134   1.085190   0.000000
    10  H    3.039212   2.483397   1.076983   1.759062   0.000000
    11  C    2.733799   2.742397   1.535250   2.140211   2.151037
    12  H    3.067750   2.523490   2.152992   3.032845   2.478066
    13  H    2.517402   3.080198   2.153002   2.468317   3.037725
    14  N    4.109765   4.119714   2.482566   2.691986   2.721243
    15  H    4.712621   4.722798   3.356452   3.614270   3.641420
    16  H    4.605939   4.292108   2.686081   2.998305   2.507763
    17  H    4.281986   4.620222   2.689939   2.470034   3.033555
    18  C    5.475692   5.599417   3.504210   3.062201   3.298043
    19  H    5.809387   5.992633   3.940040   3.576544   3.888123
    20  O    4.291762   4.522813   2.387204   1.826014   2.331366
    21  O    6.467296   6.450858   4.439421   4.014892   4.008185
                   11         12         13         14         15
    11  C    0.000000
    12  H    1.078356   0.000000
    13  H    1.078207   1.760438   0.000000
    14  N    1.484914   2.099965   2.092993   0.000000
    15  H    2.051841   2.378423   2.372753   1.009085   0.000000
    16  H    2.060717   2.398195   2.931308   1.006896   1.644537
    17  H    2.070203   2.948695   2.393288   1.022196   1.658261
    18  C    3.657285   4.419248   4.263858   2.670101   3.400975
    19  H    3.658683   4.394692   4.145826   2.371367   2.818278
    20  O    2.887904   3.746887   3.466548   2.407386   3.345816
    21  O    4.772098   5.439882   5.460281   3.807087   4.502169
                   16         17         18         19         20
    16  H    0.000000
    17  H    1.649664   0.000000
    18  C    2.375807   2.106444   0.000000
    19  H    2.242587   1.763166   1.086379   0.000000
    20  O    2.330402   1.891119   1.264016   2.023458   0.000000
    21  O    3.301977   3.342062   1.248572   1.999022   2.215921
                   21
    21  O    0.000000
 Stoichiometry    C5H13NO2
 Framework group  C1[X(C5H13NO2)]
 Deg. of freedom    57
 Full point group                 C1      NOp   1
 Largest Abelian subgroup         C1      NOp   1
 Largest concise Abelian subgroup C1      NOp   1
                         Standard orientation:                         
 ---------------------------------------------------------------------
 Center     Atomic      Atomic             Coordinates (Angstroms)
 Number     Number       Type             X           Y           Z
 ---------------------------------------------------------------------
      1          6           0       -3.007615   -1.439257    0.034608
      2          1           0       -2.657479   -1.908320    0.940114
      3          1           0       -2.589817   -1.956770   -0.813948
      4          1           0       -4.083138   -1.506511   -0.004742
      5          6           0       -2.571541    0.035518    0.010078
      6          1           0       -2.927605    0.500008   -0.897181
      7          1           0       -2.997640    0.548466    0.859823
      8          6           0       -1.034317    0.122193    0.063082
      9          1           0       -0.585458   -0.382447   -0.786331
     10          1           0       -0.681092   -0.339686    0.969609
     11          6           0       -0.601528    1.594861    0.032509
     12          1           0       -1.018363    2.113720    0.880969
     13          1           0       -0.949676    2.057158   -0.877219
     14          7           0        0.878619    1.704462    0.078585
     15          1           0        1.140466    2.678767    0.058124
     16          1           0        1.230781    1.282463    0.922231
     17          1           0        1.289086    1.224862   -0.725395
     18          6           0        2.412261   -0.467418   -0.167025
     19          1           0        2.860565    0.494049   -0.401174
     20          8           0        1.181479   -0.635132   -0.401086
     21          8           0        3.147956   -1.341415    0.336775
 ---------------------------------------------------------------------
 Rotational constants (GHZ):      2.8730502      0.9312360      0.7290022
 Standard basis: 6-311+G(d) (5D, 7F)
 There are   215 symmetry adapted basis functions of A   symmetry.
 Integral buffers will be    131072 words long.
 Raffenetti 2 integral format.
 Two-electron integral symmetry is turned on.
   215 basis functions,   353 primitive gaussians,   223 cartesian basis functions
    33 alpha electrons       33 beta electrons
       nuclear repulsion energy       399.6460319410 Hartrees.
 NAtoms=   21 NActive=   21 NUniq=   21 SFac= 7.50D-01 NAtFMM=   80 NAOKFM=F Big=F
 One-electron integrals computed using PRISM.
 NBasis=   215 RedAO= T  NBF=   215
 NBsUse=   215 1.00D-06 NBFU=   215
 Initial guess read from the read-write file.
 B after Tr=     0.000000    0.000000    0.000000
         Rot=    1.000000    0.000000    0.000000    0.000000 Ang=   0.00 deg.
 Initial guess orbital symmetries:
       Occupied  (A) (A) (A) (A) (A) (A) (A) (A) (A) (A) (A) (A)
                 (A) (A) (A) (A) (A) (A) (A) (A) (A) (A) (A) (A)
                 (A) (A) (A) (A) (A) (A) (A) (A) (A)
       Virtual   (A) (A) (A) (A) (A) (A) (A) (A) (A) (A) (A) (A)
                 (A) (A) (A) (A) (A) (A) (A) (A) (A) (A) (A) (A)
                 (A) (A) (A) (A) (A) (A) (A) (A) (A) (A) (A) (A)
                 (A) (A) (A) (A) (A) (A) (A) (A) (A) (A) (A) (A)
                 (A) (A) (A) (A) (A) (A) (A) (A) (A) (A) (A) (A)
                 (A) (A) (A) (A) (A) (A) (A) (A) (A) (A) (A) (A)
                 (A) (A) (A) (A) (A) (A) (A) (A) (A) (A) (A) (A)
                 (A) (A) (A) (A) (A) (A) (A) (A) (A) (A) (A) (A)
                 (A) (A) (A) (A) (A) (A) (A) (A) (A) (A) (A) (A)
                 (A) (A) (A) (A) (A) (A) (A) (A) (A) (A) (A) (A)
                 (A) (A) (A) (A) (A) (A) (A) (A) (A) (A) (A) (A)
                 (A) (A) (A) (A) (A) (A) (A) (A) (A) (A) (A) (A)
                 (A) (A) (A) (A) (A) (A) (A) (A) (A) (A) (A) (A)
                 (A) (A) (A) (A) (A) (A) (A) (A) (A) (A) (A) (A)
                 (A) (A) (A) (A) (A) (A) (A) (A) (A) (A) (A) (A)
                 (A) (A)
 Harris functional with IExCor= 1009 diagonalized for initial guess.
 ExpMin= 4.38D-02 ExpMax= 8.59D+03 ExpMxC= 1.30D+03 IAcc=2 IRadAn=         0 AccDes= 0.00D+00
 HarFok:  IExCor= 1009 AccDes= 0.00D+00 IRadAn=         0 IDoV= 1
 ScaDFX=  1.000000  1.000000  1.000000  1.000000
 FoFCou: FMM=F IPFlag=           0 FMFlag=      100000 FMFlg1=           0
         NFxFlg=           0 DoJE=T BraDBF=F KetDBF=T FulRan=T
         Omega=  0.000000  0.000000  1.000000  0.000000  0.000000 ICntrl=     500 IOpCl=  0
         NMat0=    1 NMatS0=    1 NMatT0=    0 NMatD0=    1 NMtDS0=    0 NMtDT0=    0
         I1Cent=           4 NGrid=           0.
 Petite list used in FoFCou.
 Requested convergence on RMS density matrix=1.00D-08 within 128 cycles.
 Requested convergence on MAX density matrix=1.00D-06.
 Requested convergence on             energy=1.00D-06.
 No special actions if energy rises.
 SCF Done:  E(RM062X) =  -403.413794727     A.U. after   13 cycles
             Convg  =    0.5023D-08             -V/T =  2.0024
 Calling FoFJK, ICntrl=      2127 FMM=F ISym2X=0 I1Cent= 0 IOpClX= 0 NMat=1 NMatS=1 NMatT=0.
 ***** Axes restored to original set *****
 -------------------------------------------------------------------
 Center     Atomic                   Forces (Hartrees/Bohr)
 Number     Number              X              Y              Z
 -------------------------------------------------------------------
      1        6           0.003613680    0.012867142    0.013656958
      2        1           0.001322196   -0.009189711   -0.000136388
      3        1           0.003002701   -0.000077739   -0.008593995
      4        1          -0.008945458   -0.001145176   -0.002632202
      5        6           0.014173820   -0.013571704   -0.008670016
      6        1          -0.004305430    0.009893620   -0.000274619
      7        1          -0.006744346    0.000437454    0.008988889
      8        6          -0.029803250    0.022938092    0.006796923
      9        1          -0.011448531   -0.003182339    0.001288190
     10        1           0.003709845   -0.008789888   -0.001466212
     11        6          -0.012408463   -0.016432288   -0.018255993
     12        1           0.000010775    0.000534061    0.010477230
     13        1           0.001016340    0.009658298    0.000189614
     14        7          -0.011953077    0.027968637    0.020717613
     15        1           0.005411453    0.004043545    0.009535367
     16        1           0.005867000   -0.009699984   -0.003144795
     17        1          -0.005829330   -0.008446086   -0.005683511
     18        6           0.001295565   -0.078858797   -0.051037910
     19        1           0.016160057    0.014171640    0.010139482
     20        8           0.034191421    0.015696315    0.000235145
     21        8           0.001663032    0.031184905    0.017870228
 -------------------------------------------------------------------
 Cartesian Forces:  Max     0.078858797 RMS     0.016833018

 GradGradGradGradGradGradGradGradGradGradGradGradGradGradGradGradGradGrad
 Berny optimization.
 Using GEDIIS/GDIIS optimizer.
 Internal  Forces:  Max     0.032184270 RMS     0.008186578
 Search for a local minimum.
 Step number   2 out of a maximum of  124
 All quantities printed in internal units (Hartrees-Bohrs-Radians)
 Mixed Optimization -- RFO/linear search
 Update second derivatives using D2CorX and points    1    2
 DE= -2.99D-02 DEPred=-3.24D-02 R= 9.22D-01
 SS=  1.41D+00  RLast= 3.00D-01 DXNew= 5.0454D-01 8.9988D-01
 Trust test= 9.22D-01 RLast= 3.00D-01 DXMaxT set to 5.05D-01
 Use linear search instead of GDIIS.
 Linear search step of   0.600 exceeds DXMaxT=   0.505 but not scaled.
 Quartic linear search produced a step of  2.00000.
 Iteration  1 RMS(Cart)=  0.10002620 RMS(Int)=  0.01520008
 Iteration  2 RMS(Cart)=  0.02128827 RMS(Int)=  0.00156229
 Iteration  3 RMS(Cart)=  0.00012817 RMS(Int)=  0.00155829
 Iteration  4 RMS(Cart)=  0.00000028 RMS(Int)=  0.00155829
 Variable       Old X    -DE/DX   Delta X   Delta X   Delta X     New X
                                 (Linear)    (Quad)   (Total)
    R1        2.03754   0.00897   0.03106   0.00000   0.03106   2.06860
    R2        2.03742   0.00881   0.03083   0.00000   0.03083   2.06825
    R3        2.03777   0.00896   0.03153   0.00000   0.03153   2.06930
    R4        2.90657  -0.00275  -0.00722   0.00000  -0.00722   2.89935
    R5        2.04025   0.01038   0.03648   0.00000   0.03648   2.07673
    R6        2.04120   0.01064   0.03839   0.00000   0.03839   2.07960
    R7        2.91127  -0.00236   0.00219   0.00000   0.00219   2.91346
    R8        2.05071   0.01157   0.05741   0.00000   0.05622   2.10693
    R9        2.03520   0.00879   0.02639   0.00000   0.02639   2.06159
   R10        2.90120  -0.00491  -0.01795   0.00000  -0.01869   2.88251
   R11        3.45067   0.03218   0.34354   0.00000   0.34443   3.79510
   R12        2.03780   0.00911   0.03158   0.00000   0.03158   2.06938
   R13        2.03752   0.00886   0.03102   0.00000   0.03102   2.06854
   R14        2.80608   0.01404   0.05637   0.00000   0.05551   2.86159
   R15        1.90690   0.01106   0.03434   0.00000   0.03434   1.94123
   R16        1.90276   0.00978   0.02606   0.00000   0.02606   1.92882
   R17        1.93167   0.02113   0.08389   0.00000   0.08514   2.01681
   R18        3.98060   0.02981   0.29641   0.00000   0.29595   4.27655
   R19        3.57370  -0.00654  -0.00997   0.00000  -0.01097   3.56272
   R20        2.05296   0.02311   0.06190   0.00000   0.06190   2.11486
   R21        2.38864   0.00548   0.02123   0.00000   0.02402   2.41266
   R22        2.35946  -0.02945  -0.03714   0.00000  -0.03714   2.32231
    A1        1.90320  -0.00265  -0.01486   0.00000  -0.01490   1.88830
    A2        1.90435  -0.00256  -0.01257   0.00000  -0.01276   1.89159
    A3        1.91607   0.00224   0.01087   0.00000   0.01075   1.92682
    A4        1.90481  -0.00237  -0.01164   0.00000  -0.01181   1.89301
    A5        1.91540   0.00201   0.00953   0.00000   0.00942   1.92482
    A6        1.91983   0.00322   0.01840   0.00000   0.01822   1.93805
    A7        1.90966  -0.00039  -0.00196   0.00000  -0.00199   1.90766
    A8        1.90810  -0.00067  -0.00506   0.00000  -0.00521   1.90289
    A9        1.91378   0.00172   0.00629   0.00000   0.00625   1.92003
   A10        1.90357  -0.00144  -0.01412   0.00000  -0.01417   1.88941
   A11        1.91111  -0.00003   0.00095   0.00000   0.00098   1.91209
   A12        1.91754   0.00079   0.01381   0.00000   0.01382   1.93136
   A13        1.93867   0.00630   0.05607   0.00000   0.05701   1.99567
   A14        1.90932  -0.00033  -0.00263   0.00000  -0.00281   1.90651
   A15        1.91195   0.00102   0.00263   0.00000   0.00419   1.91614
   A16        1.90049  -0.00248  -0.02028   0.00000  -0.02107   1.87942
   A17        1.89007  -0.00562  -0.04112   0.00000  -0.04285   1.84723
   A18        1.91313   0.00104   0.00500   0.00000   0.00412   1.91725
   A19        1.87492   0.01925   0.12245   0.00000   0.12248   1.99739
   A20        1.91443   0.00278   0.00759   0.00000   0.00814   1.92257
   A21        1.91459   0.00020   0.00792   0.00000   0.01028   1.92487
   A22        1.92963   0.00407   0.03799   0.00000   0.03430   1.96392
   A23        1.91001   0.00015  -0.00125   0.00000  -0.00273   1.90728
   A24        1.90221  -0.00323  -0.01685   0.00000  -0.01621   1.88599
   A25        1.89272  -0.00409  -0.03582   0.00000  -0.03546   1.85726
   A26        1.90635   0.00013  -0.00857   0.00000  -0.00772   1.89863
   A27        1.92164   0.00548   0.02202   0.00000   0.02063   1.94227
   A28        1.91902  -0.00352   0.01678   0.00000   0.01823   1.93725
   A29        1.90805  -0.00089  -0.00517   0.00000  -0.00513   1.90292
   A30        1.91014   0.00376  -0.00099   0.00000  -0.00218   1.90796
   A31        1.89855  -0.00495  -0.02416   0.00000  -0.02424   1.87431
   A32        1.96336   0.01984   0.11473   0.00000   0.11247   2.07583
   A33        1.87941   0.01599   0.07116   0.00000   0.07855   1.95796
   A34        0.99070   0.00685   0.06321   0.00000   0.06442   1.05512
   A35        2.95972  -0.00941  -0.04941   0.00000  -0.04839   2.91133
   A36        2.07068  -0.00703  -0.04742   0.00000  -0.04624   2.02445
   A37        2.05254  -0.01186  -0.08371   0.00000  -0.08123   1.97132
   A38        2.15985   0.01882   0.13091   0.00000   0.12657   2.28642
   A39        1.45330  -0.00873  -0.06830   0.00000  -0.07023   1.38307
   A40        2.86839   0.00681   0.07080   0.00000   0.07226   2.94064
    D1       -3.13861   0.00078   0.00597   0.00000   0.00590  -3.13271
    D2       -1.05497  -0.00161  -0.01554   0.00000  -0.01554  -1.07051
    D3        1.04827   0.00000   0.00214   0.00000   0.00209   1.05036
    D4        1.05302   0.00141   0.01164   0.00000   0.01165   1.06467
    D5        3.13666  -0.00099  -0.00987   0.00000  -0.00979   3.12686
    D6       -1.04329   0.00063   0.00782   0.00000   0.00783  -1.03546
    D7       -1.04287   0.00105   0.00865   0.00000   0.00863  -1.03425
    D8        1.04077  -0.00134  -0.01286   0.00000  -0.01282   1.02795
    D9       -3.13918   0.00027   0.00482   0.00000   0.00481  -3.13437
   D10        1.05022   0.00098   0.00605   0.00000   0.00622   1.05644
   D11       -1.04827   0.00030  -0.00214   0.00000  -0.00239  -1.05066
   D12        3.13746  -0.00140  -0.00826   0.00000  -0.00829   3.12917
   D13       -1.04520   0.00042   0.00400   0.00000   0.00419  -1.04101
   D14        3.13950  -0.00026  -0.00419   0.00000  -0.00442   3.13508
   D15        1.04204  -0.00196  -0.01031   0.00000  -0.01032   1.03173
   D16       -3.13547   0.00172   0.01225   0.00000   0.01251  -3.12296
   D17        1.04923   0.00105   0.00406   0.00000   0.00390   1.05312
   D18       -1.04822  -0.00065  -0.00205   0.00000  -0.00200  -1.05023
   D19       -2.86865  -0.00343  -0.05158   0.00000  -0.05238  -2.92103
   D20       -0.76494  -0.00152  -0.03294   0.00000  -0.03403  -0.79897
   D21        1.31428  -0.00492  -0.06328   0.00000  -0.06344   1.25085
   D22        1.04636  -0.00010  -0.00168   0.00000  -0.00136   1.04500
   D23       -1.05206  -0.00214  -0.00973   0.00000  -0.00968  -1.06174
   D24       -3.13862   0.00025   0.00595   0.00000   0.00608  -3.13254
   D25       -3.12000   0.00474   0.04319   0.00000   0.04389  -3.07611
   D26        1.06477   0.00270   0.03515   0.00000   0.03557   1.10034
   D27       -1.02179   0.00509   0.05082   0.00000   0.05133  -0.97046
   D28       -1.04877  -0.00096  -0.00314   0.00000  -0.00307  -1.05183
   D29        3.13600  -0.00300  -0.01118   0.00000  -0.01139   3.12462
   D30        1.04944  -0.00061   0.00449   0.00000   0.00438   1.05382
   D31       -1.28789   0.00621   0.04376   0.00000   0.04839  -1.23950
   D32       -1.20434  -0.00034   0.00604   0.00000   0.00204  -1.20230
   D33       -3.14098  -0.00175   0.00122   0.00000   0.00214  -3.13884
   D34       -1.04565   0.00061   0.00309   0.00000   0.00363  -1.04202
   D35        1.04592  -0.00428  -0.00256   0.00000  -0.00153   1.04439
   D36       -1.03547   0.00215   0.02345   0.00000   0.02317  -1.01231
   D37        1.05986   0.00451   0.02532   0.00000   0.02466   1.08451
   D38       -3.13176  -0.00038   0.01967   0.00000   0.01950  -3.11226
   D39        1.04251  -0.00189  -0.00938   0.00000  -0.00818   1.03433
   D40        3.13784   0.00047  -0.00751   0.00000  -0.00669   3.13115
   D41       -1.05378  -0.00442  -0.01316   0.00000  -0.01184  -1.06562
   D42       -1.98545  -0.00368  -0.02874   0.00000  -0.02572  -2.01116
   D43       -1.31380  -0.00186  -0.04410   0.00000  -0.04307  -1.35687
   D44        2.20375  -0.00401  -0.02793   0.00000  -0.02613   2.17761
   D45        2.87540  -0.00218  -0.04329   0.00000  -0.04349   2.83191
   D46        0.12010  -0.00219  -0.00643   0.00000  -0.00467   0.11543
   D47        0.79175  -0.00037  -0.02179   0.00000  -0.02202   0.76973
   D48       -1.73939  -0.00486  -0.07046   0.00000  -0.06999  -1.80938
   D49       -0.69293  -0.00278  -0.01538   0.00000  -0.01731  -0.71024
   D50        1.30127  -0.00999  -0.08057   0.00000  -0.07360   1.22767
   D51       -0.23705   0.00221   0.01287   0.00000   0.01269  -0.22436
   D52        2.88835  -0.00365  -0.01951   0.00000  -0.02344   2.86491
         Item               Value     Threshold  Converged?
 Maximum Force            0.032184     0.000450     NO 
 RMS     Force            0.008187     0.000300     NO 
 Maximum Displacement     0.621461     0.001800     NO 
 RMS     Displacement     0.117559     0.001200     NO 
 Predicted change in Energy=-1.544444D-02
 GradGradGradGradGradGradGradGradGradGradGradGradGradGradGradGradGradGrad

                          Input orientation:                          
 ---------------------------------------------------------------------
 Center     Atomic      Atomic             Coordinates (Angstroms)
 Number     Number       Type             X           Y           Z
 ---------------------------------------------------------------------
      1          6           0        0.829607   -0.317418    1.934877
      2          1           0        1.032052   -1.359130    2.203442
      3          1           0        1.301542   -0.115872    0.968170
      4          1           0       -0.252791   -0.193283    1.824929
      5          6           0        1.386631    0.629017    3.006313
      6          1           0        1.165814    1.667799    2.723671
      7          1           0        0.888103    0.419112    3.964675
      8          6           0        2.911643    0.442036    3.134073
      9          1           0        3.480991    0.657959    2.200098
     10          1           0        3.124558   -0.588702    3.421151
     11          6           0        3.462546    1.397520    4.187767
     12          1           0        2.995258    1.199260    5.158081
     13          1           0        3.267911    2.435032    3.898142
     14          7           0        4.962497    1.274199    4.355130
     15          1           0        5.270521    1.937753    5.076291
     16          1           0        5.227425    0.329657    4.637010
     17          1           0        5.468225    1.487594    3.439857
     18          6           0        6.637648   -0.162549    2.424526
     19          1           0        7.184259    0.634412    2.988918
     20          8           0        5.392466    0.042741    2.231113
     21          8           0        7.350948   -1.121119    2.137157
 ---------------------------------------------------------------------
                    Distance matrix (angstroms):
                    1          2          3          4          5
     1  C    0.000000
     2  H    1.094658   0.000000
     3  H    1.094471   1.773193   0.000000
     4  H    1.095026   1.775752   1.776508   0.000000
     5  C    1.534272   2.173260   2.171665   2.181639   0.000000
     6  H    2.162480   3.074220   2.506330   2.506751   1.098960
     7  H    2.160087   2.506952   3.071837   2.501035   1.100477
     8  C    2.519864   2.764622   2.755871   3.482977   1.541735
     9  H    2.837524   3.172690   2.620393   3.847921   2.244363
    10  H    2.747618   2.540660   3.092583   3.756430   2.162249
    11  C    3.866380   4.176597   4.162464   4.681601   2.509154
    12  H    4.168861   4.373720   4.706761   4.857870   2.746446
    13  H    4.168419   4.718764   4.354131   4.858147   2.756132
    14  N    5.046945   5.197362   5.177489   5.979519   3.875872
    15  H    5.888633   6.089935   6.070159   6.754231   4.591535
    16  H    5.202022   5.135699   5.391794   6.181750   4.183359
    17  H    5.199982   5.414074   5.103096   6.177651   4.193391
    18  C    5.830702   5.736147   5.531472   6.916546   5.342119
    19  H    6.511420   6.514663   6.265198   7.572956   5.797657
    20  O    4.586628   4.580307   4.284372   5.664770   4.122059
    21  O    6.573792   6.323724   6.242785   7.666499   6.276264
                    6          7          8          9         10
     6  H    0.000000
     7  H    1.782255   0.000000
     8  C    2.172290   2.187496   0.000000
     9  H    2.579526   3.145449   1.114939   0.000000
    10  H    3.068380   2.512536   1.090949   1.781061   0.000000
    11  C    2.737080   2.763116   1.525357   2.120877   2.155694
    12  H    3.081030   2.544200   2.162634   3.046080   2.496088
    13  H    2.527220   3.119591   2.163968   2.467133   3.064480
    14  N    4.151070   4.181425   2.527741   2.686777   2.778621
    15  H    4.738809   4.769439   3.402011   3.621156   3.705080
    16  H    4.684888   4.392010   2.763023   3.016016   2.596873
    17  H    4.365334   4.732294   2.778994   2.484833   3.131155
    18  C    5.777597   5.980607   3.840846   3.269263   3.676502
    19  H    6.112277   6.374954   4.279408   3.786421   4.261925
    20  O    4.554999   4.841093   2.670067   2.008281   2.637862
    21  O    6.810136   6.890609   4.810897   4.259770   4.449099
                   11         12         13         14         15
    11  C    0.000000
    12  H    1.095067   0.000000
    13  H    1.094622   1.785754   0.000000
    14  N    1.514289   2.126117   2.104280   0.000000
    15  H    2.085689   2.393508   2.376083   1.027256   0.000000
    16  H    2.111149   2.451590   2.969550   1.020687   1.667572
    17  H    2.142483   3.025061   2.439067   1.067251   1.708697
    18  C    3.952734   4.753299   4.502677   2.932168   3.648583
[...]
    11  C    3.891280   4.212924   4.204108   4.703231   2.533105
    12  H    4.185595   4.410280   4.737806   4.867260   2.762767
    13  H    4.193010   4.751655   4.398212   4.880461   2.780916
    14  N    4.994347   5.157612   5.135657   5.928206   3.829919
    15  H    5.866004   6.063905   6.058217   6.741274   4.586951
    16  H    5.101909   5.046579   5.301358   6.083520   4.094873
    17  H    5.146370   5.454586   4.917892   6.115103   4.244174
    18  C    6.437770   6.701471   5.941540   7.424350   5.836443
    19  H    6.863592   6.994397   6.492461   7.897258   6.186565
    20  O    5.365709   5.753242   4.939113   6.307906   4.642991
    21  O    7.109494   7.410096   6.464911   8.056836   6.667734
                    6          7          8          9         10
     6  H    0.000000
     7  H    1.754525   0.000000
     8  C    2.151687   2.157627   0.000000
     9  H    2.505529   3.063824   1.094867   0.000000
    10  H    3.057848   2.506840   1.098053   1.759888   0.000000
    11  C    2.756380   2.762058   1.521499   2.145795   2.150388
    12  H    3.076318   2.538152   2.159028   3.058085   2.512466
    13  H    2.553490   3.113558   2.151831   2.482926   3.056102
    14  N    4.112483   4.132546   2.461819   2.672696   2.701220
    15  H    4.757299   4.757144   3.351838   3.622587   3.621279
    16  H    4.608495   4.307702   2.665415   2.968896   2.471605
    17  H    4.321069   4.914230   2.899112   2.400780   3.352874
    18  C    5.883508   6.641045   4.537608   3.747714   4.851827
    19  H    6.366300   6.869144   4.753685   4.144326   4.881597
    20  O    4.601845   5.456946   3.437906   2.663965   3.962976
    21  O    6.643239   7.556973   5.478526   4.567528   5.818254
                   11         12         13         14         15
    11  C    0.000000
    12  H    1.096674   0.000000
    13  H    1.093647   1.766088   0.000000
    14  N    1.476809   2.142037   2.083517   0.000000
    15  H    2.066171   2.415875   2.403475   1.015371   0.000000
    16  H    2.057938   2.459119   2.935234   1.016233   1.628362
    17  H    2.510801   3.526486   2.604209   1.726807   2.310489
    18  C    4.421370   5.440032   4.446520   3.510796   3.934476
    19  H    4.483720   5.388070   4.692494   3.290385   3.595379
    20  O    3.308207   4.377038   3.214954   2.719099   3.263590
    21  O    5.499960   6.550241   5.433477   4.686808   5.105068
                   16         17         18         19         20
    16  H    0.000000
    17  H    2.340513   0.000000
    18  C    3.859251   1.923642   0.000000
    19  H    3.434769   2.124976   1.106612   0.000000
    20  O    3.294342   0.999245   1.324978   2.037059   0.000000
    21  O    5.034063   3.039086   1.194471   2.014216   2.229225
                   21
    21  O    0.000000
 Stoichiometry    C5H13NO2
 Framework group  C1[X(C5H13NO2)]
 Deg. of freedom    57
 Full point group                 C1      NOp   1
 Largest Abelian subgroup         C1      NOp   1
 Largest concise Abelian subgroup C1      NOp   1
                         Standard orientation:                         
 ---------------------------------------------------------------------
 Center     Atomic      Atomic             Coordinates (Angstroms)
 Number     Number       Type             X           Y           Z
 ---------------------------------------------------------------------
      1          6           0       -3.272163   -1.605190    0.241348
      2          1           0       -3.460997   -1.496314    1.312530
      3          1           0       -2.537667   -2.404048    0.114092
      4          1           0       -4.202395   -1.928509   -0.229449
      5          6           0       -2.764836   -0.298587   -0.360961
      6          1           0       -2.612199   -0.425431   -1.438142
      7          1           0       -3.525399    0.481682   -0.245845
      8          6           0       -1.457539    0.161227    0.280099
      9          1           0       -0.693347   -0.613870    0.161913
     10          1           0       -1.609175    0.294020    1.359494
     11          6           0       -0.944287    1.462226   -0.319013
     12          1           0       -1.702713    2.247813   -0.217347
     13          1           0       -0.754246    1.325494   -1.387307
     14          7           0        0.334628    1.848766    0.310216
     15          1           0        0.656502    2.741013   -0.052097
     16          1           0        0.204450    1.972469    1.310456
     17          1           0        1.386837    0.550160   -0.123770
     18          6           0        3.046810   -0.376169    0.170849
     19          1           0        3.248195    0.436033    0.894977
     20          8           0        1.877308   -0.260544   -0.441084
     21          8           0        3.824172   -1.262321   -0.022035
 ---------------------------------------------------------------------
 Rotational constants (GHZ):      2.7374591      0.6709647      0.5623821

 **********************************************************************

            Population analysis using the SCF density.

 **********************************************************************

 Orbital symmetries:
       Occupied  (A) (A) (A) (A) (A) (A) (A) (A) (A) (A) (A) (A)
                 (A) (A) (A) (A) (A) (A) (A) (A) (A) (A) (A) (A)
                 (A) (A) (A) (A) (A) (A) (A) (A) (A)
       Virtual   (A) (A) (A) (A) (A) (A) (A) (A) (A) (A) (A) (A)
                 (A) (A) (A) (A) (A) (A) (A) (A) (A) (A) (A) (A)
                 (A) (A) (A) (A) (A) (A) (A) (A) (A) (A) (A) (A)
                 (A) (A) (A) (A) (A) (A) (A) (A) (A) (A) (A) (A)
                 (A) (A) (A) (A) (A) (A) (A) (A) (A) (A) (A) (A)
                 (A) (A) (A) (A) (A) (A) (A) (A) (A) (A) (A) (A)
                 (A) (A) (A) (A) (A) (A) (A) (A) (A) (A) (A) (A)
                 (A) (A) (A) (A) (A) (A) (A) (A) (A) (A) (A) (A)
                 (A) (A) (A) (A) (A) (A) (A) (A) (A) (A) (A) (A)
                 (A) (A) (A) (A) (A) (A) (A) (A) (A) (A) (A) (A)
                 (A) (A) (A) (A) (A) (A) (A) (A) (A) (A) (A) (A)
                 (A) (A) (A) (A) (A) (A) (A) (A) (A) (A) (A) (A)
                 (A) (A) (A) (A) (A) (A) (A) (A) (A) (A) (A) (A)
                 (A) (A) (A) (A) (A) (A) (A) (A) (A) (A) (A) (A)
                 (A) (A) (A) (A) (A) (A) (A) (A) (A) (A) (A) (A)
                 (A) (A)
 The electronic state is 1-A.
 Alpha  occ. eigenvalues --  -19.64085 -19.59766 -14.77595 -10.65740 -10.58584
 Alpha  occ. eigenvalues --  -10.54619 -10.54347 -10.52993  -1.21274  -1.12955
 Alpha  occ. eigenvalues --   -1.03308  -0.90574  -0.82254  -0.72701  -0.70244
 Alpha  occ. eigenvalues --   -0.68176  -0.64543  -0.60103  -0.57110  -0.54235
 Alpha  occ. eigenvalues --   -0.52268  -0.50984  -0.50932  -0.49677  -0.46516
 Alpha  occ. eigenvalues --   -0.45497  -0.43608  -0.41117  -0.40492  -0.40079
 Alpha  occ. eigenvalues --   -0.37427  -0.36112  -0.33847
 Alpha virt. eigenvalues --   -0.00652   0.01608   0.01804   0.02883   0.03856
 Alpha virt. eigenvalues --    0.04440   0.04942   0.05347   0.05940   0.06775
 Alpha virt. eigenvalues --    0.07280   0.08155   0.08769   0.09156   0.09264
 Alpha virt. eigenvalues --    0.11068   0.11713   0.13060   0.13384   0.13739
 Alpha virt. eigenvalues --    0.15978   0.16358   0.17926   0.18451   0.18515
 Alpha virt. eigenvalues --    0.19776   0.19959   0.21292   0.21602   0.22431
 Alpha virt. eigenvalues --    0.22715   0.23297   0.24753   0.24879   0.25366
 Alpha virt. eigenvalues --    0.25538   0.27102   0.27301   0.28678   0.29679
 Alpha virt. eigenvalues --    0.30189   0.30551   0.30970   0.31963   0.32785
 Alpha virt. eigenvalues --    0.32916   0.34568   0.35718   0.38484   0.39247
 Alpha virt. eigenvalues --    0.42449   0.43872   0.44215   0.45783   0.47936
 Alpha virt. eigenvalues --    0.48670   0.50481   0.52661   0.54175   0.56262
 Alpha virt. eigenvalues --    0.57047   0.60902   0.62072   0.62589   0.64781
 Alpha virt. eigenvalues --    0.66746   0.68826   0.70060   0.70089   0.70718
 Alpha virt. eigenvalues --    0.71401   0.72766   0.73500   0.73911   0.74887
 Alpha virt. eigenvalues --    0.76417   0.78033   0.78695   0.80142   0.81003
 Alpha virt. eigenvalues --    0.84174   0.87405   0.91760   0.94530   0.98143
 Alpha virt. eigenvalues --    1.03057   1.05973   1.06284   1.13002   1.16513
 Alpha virt. eigenvalues --    1.17343   1.18190   1.18634   1.21114   1.24121
 Alpha virt. eigenvalues --    1.26721   1.32366   1.36306   1.36914   1.41365
 Alpha virt. eigenvalues --    1.43956   1.52813   1.55489   1.55911   1.56650
 Alpha virt. eigenvalues --    1.58512   1.62281   1.63591   1.64877   1.67015
 Alpha virt. eigenvalues --    1.69137   1.71286   1.74291   1.83105   1.84700
 Alpha virt. eigenvalues --    1.85255   1.87752   1.88524   1.95240   1.96622
 Alpha virt. eigenvalues --    2.07517   2.09397   2.13585   2.17625   2.21232
 Alpha virt. eigenvalues --    2.32350   2.39934   2.44394   2.53526   2.53745
 Alpha virt. eigenvalues --    2.54548   2.57577   2.59831   2.62712   2.63256
 Alpha virt. eigenvalues --    2.65526   2.67769   2.67890   2.73700   2.82492
 Alpha virt. eigenvalues --    2.84734   2.90494   2.94056   2.96066   3.00064
 Alpha virt. eigenvalues --    3.04408   3.09621   3.12658   3.13743   3.16906
 Alpha virt. eigenvalues --    3.20279   3.27064   3.27783   3.28411   3.30569
 Alpha virt. eigenvalues --    3.32902   3.34816   3.37735   3.45225   3.67517
 Alpha virt. eigenvalues --    3.68500   3.83371   3.90443   4.05701   4.09250
 Alpha virt. eigenvalues --    4.10566   4.17092   4.60245   5.11030   5.15282
 Alpha virt. eigenvalues --    5.21818   5.25593   5.58428   5.94484  23.52738
 Alpha virt. eigenvalues --   23.68772  23.76411  23.81246  23.88509  35.49330
 Alpha virt. eigenvalues --   49.97960  50.08032
          Condensed to atoms (all electrons):
              1          2          3          4          5          6
     1  C    6.042120   0.366684   0.381368   0.394082  -0.251184  -0.042184
     2  H    0.366684   0.464368  -0.035955  -0.026137   0.017932   0.006415
     3  H    0.381368  -0.035955   0.449560  -0.024688   0.007447  -0.008088
     4  H    0.394082  -0.026137  -0.024688   0.441844  -0.104387  -0.004008
     5  C   -0.251184   0.017932   0.007447  -0.104387   6.447105   0.423574
     6  H   -0.042184   0.006415  -0.008088  -0.004008   0.423574   0.464945
     7  H   -0.040043  -0.008629   0.006521  -0.003739   0.423844  -0.043120
     8  C    0.295314  -0.045828  -0.046654   0.060636  -0.859298  -0.050405
     9  H    0.005042  -0.000713   0.004119  -0.000206  -0.060202  -0.008484
    10  H    0.012806   0.004087  -0.000639  -0.000213  -0.071471   0.007079
    11  C   -0.215449   0.004237   0.003201   0.002188   0.461476  -0.009110
    12  H    0.004977   0.000053  -0.000038  -0.000008  -0.008734  -0.000460
    13  H    0.006536   0.000004   0.000000  -0.000027  -0.043412   0.003531
    14  N    0.001962   0.000011  -0.000607   0.000169  -0.021215   0.000729
    15  H    0.000330   0.000001  -0.000002   0.000000   0.002802  -0.000007
    16  H    0.000191  -0.000013   0.000022  -0.000002   0.007491  -0.000024
    17  H   -0.000105  -0.000008   0.000054  -0.000001   0.001068  -0.000213
    18  C    0.001395   0.000035  -0.000066  -0.000005  -0.001466   0.000109
    19  H    0.000149   0.000000   0.000000   0.000000   0.000431   0.000000
    20  O    0.002140   0.000051  -0.000312   0.000002  -0.011074   0.000306
    21  O   -0.000110   0.000000   0.000001   0.000000   0.000622   0.000001
              7          8          9         10         11         12
     1  C   -0.040043   0.295314   0.005042   0.012806  -0.215449   0.004977
     2  H   -0.008629  -0.045828  -0.000713   0.004087   0.004237   0.000053
     3  H    0.006521  -0.046654   0.004119  -0.000639   0.003201  -0.000038
     4  H   -0.003739   0.060636  -0.000206  -0.000213   0.002188  -0.000008
     5  C    0.423844  -0.859298  -0.060202  -0.071471   0.461476  -0.008734
     6  H   -0.043120  -0.050405  -0.008484   0.007079  -0.009110  -0.000460
     7  H    0.478312  -0.049598   0.006853  -0.008749  -0.013557   0.003375
     8  C   -0.049598   6.833083   0.436842   0.470322  -0.663393  -0.027398
     9  H    0.006853   0.436842   0.427979  -0.042256  -0.055374   0.005824
    10  H   -0.008749   0.470322  -0.042256   0.479529  -0.078472  -0.009289
    11  C   -0.013557  -0.663393  -0.055374  -0.078472   6.459407   0.410462
    12  H    0.003375  -0.027398   0.005824  -0.009289   0.410462   0.488438
    13  H   -0.000404   0.023314  -0.006411   0.005270   0.381187  -0.038280
    14  N   -0.001930  -0.049909  -0.010151  -0.007714  -0.041649  -0.070816
    15  H   -0.000016   0.003568   0.000345  -0.001033  -0.012386   0.002212
    16  H    0.000140   0.007428   0.000061   0.007409  -0.029644  -0.007765
    17  H    0.000118  -0.011811   0.011686  -0.001835   0.023347   0.000584
    18  C   -0.000013  -0.002340   0.005687  -0.000090  -0.006567  -0.000215
    19  H    0.000000  -0.002221   0.000494   0.000036   0.003006   0.000016
    20  O   -0.000172   0.023188  -0.008542  -0.000234  -0.011669   0.000561
    21  O    0.000000  -0.003049  -0.000166   0.000017   0.000939   0.000013
             13         14         15         16         17         18
     1  C    0.006536   0.001962   0.000330   0.000191  -0.000105   0.001395
     2  H    0.000004   0.000011   0.000001  -0.000013  -0.000008   0.000035
     3  H    0.000000  -0.000607  -0.000002   0.000022   0.000054  -0.000066
     4  H   -0.000027   0.000169   0.000000  -0.000002  -0.000001  -0.000005
     5  C   -0.043412  -0.021215   0.002802   0.007491   0.001068  -0.001466
     6  H    0.003531   0.000729  -0.000007  -0.000024  -0.000213   0.000109
     7  H   -0.000404  -0.001930  -0.000016   0.000140   0.000118  -0.000013
     8  C    0.023314  -0.049909   0.003568   0.007428  -0.011811  -0.002340
     9  H   -0.006411  -0.010151   0.000345   0.000061   0.011686   0.005687
    10  H    0.005270  -0.007714  -0.001033   0.007409  -0.001835  -0.000090
    11  C    0.381187  -0.041649  -0.012386  -0.029644   0.023347  -0.006567
    12  H   -0.038280  -0.070816   0.002212  -0.007765   0.000584  -0.000215
    13  H    0.411120  -0.025823  -0.006139   0.005439  -0.005705  -0.000002
    14  N   -0.025823   7.565566   0.292969   0.295046  -0.135389  -0.003616
    15  H   -0.006139   0.292969   0.395534  -0.045518  -0.002422  -0.000555
    16  H    0.005439   0.295046  -0.045518   0.405837   0.001290   0.000786
    17  H   -0.005705  -0.135389  -0.002422   0.001290   0.422470   0.029009
    18  C   -0.000002  -0.003616  -0.000555   0.000786   0.029009   5.025340
    19  H   -0.000029  -0.002236  -0.000569  -0.000271   0.024742   0.454772
    20  O   -0.001776   0.052429  -0.000205  -0.006235   0.118561   0.069057
    21  O   -0.000030   0.007274   0.000009  -0.000148   0.000676   0.420932
             19         20         21
     1  C    0.000149   0.002140  -0.000110
     2  H    0.000000   0.000051   0.000000
     3  H    0.000000  -0.000312   0.000001
     4  H    0.000000   0.000002   0.000000
     5  C    0.000431  -0.011074   0.000622
     6  H    0.000000   0.000306   0.000001
     7  H    0.000000  -0.000172   0.000000
     8  C   -0.002221   0.023188  -0.003049
     9  H    0.000494  -0.008542  -0.000166
    10  H    0.000036  -0.000234   0.000017
    11  C    0.003006  -0.011669   0.000939
    12  H    0.000016   0.000561   0.000013
    13  H   -0.000029  -0.001776  -0.000030
    14  N   -0.002236   0.052429   0.007274
    15  H   -0.000569  -0.000205   0.000009
    16  H   -0.000271  -0.006235  -0.000148
    17  H    0.024742   0.118561   0.000676
    18  C    0.454772   0.069057   0.420932
    19  H    0.598896  -0.176704  -0.079998
    20  O   -0.176704   8.389625  -0.090958
    21  O   -0.079998  -0.090958   8.064264
 Mulliken atomic charges:
              1
     1  C   -0.966020
     2  H    0.253405
     3  H    0.264756
     4  H    0.264499
     5  C   -0.361347
     6  H    0.259414
     7  H    0.250807
     8  C   -0.341790
     9  H    0.287574
    10  H    0.235440
    11  C   -0.612183
    12  H    0.246486
    13  H    0.291636
    14  N   -0.845101
    15  H    0.371084
    16  H    0.358482
    17  H    0.523883
    18  C    0.007815
    19  H    0.179485
    20  O   -0.348037
    21  O   -0.320288
 Sum of Mulliken atomic charges =   0.00000
 Mulliken charges with hydrogens summed into heavy atoms:
              1
     1  C   -0.183361
     5  C    0.148874
     8  C    0.181224
    11  C   -0.074061
    14  N   -0.115534
    18  C    0.187300
    20  O    0.175846
    21  O   -0.320288
 Sum of Mulliken charges with hydrogens summed into heavy atoms =   0.00000
 Electronic spatial extent (au):  <R**2>=           1973.6555
 Charge=              0.0000 electrons
 Dipole moment (field-independent basis, Debye):
    X=             -4.6109    Y=              5.2209    Z=              1.6705  Tot=              7.1630
 Quadrupole moment (field-independent basis, Debye-Ang):
   XX=            -67.4133   YY=            -48.9238   ZZ=            -50.3469
   XY=             11.1962   XZ=              3.3647   YZ=              0.4350
 Traceless Quadrupole moment (field-independent basis, Debye-Ang):
   XX=            -11.8520   YY=              6.6375   ZZ=              5.2145
   XY=             11.1962   XZ=              3.3647   YZ=              0.4350
 Octapole moment (field-independent basis, Debye-Ang**2):
  XXX=            -56.3235  YYY=             24.3265  ZZZ=              2.7000  XYY=             -3.0336
  XXY=             40.0109  XXZ=              6.4969  XZZ=              6.0129  YZZ=              4.5653
  YYZ=              1.3946  XYZ=             -2.2641
 Hexadecapole moment (field-independent basis, Debye-Ang**3):
 XXXX=          -2273.1687 YYYY=           -467.7653 ZZZZ=           -113.5475 XXXY=            140.6236
 XXXZ=             18.5610 YYYX=             12.3989 YYYZ=              4.6932 ZZZX=             -0.6689
 ZZZY=              7.0801 XXYY=           -460.8756 XXZZ=           -346.3134 YYZZ=           -101.0175
 XXYZ=              3.1428 YYXZ=              2.6427 ZZXY=             -2.2034
 N-N= 3.745178542724D+02 E-N=-1.691581478760D+03  KE= 4.020861788186D+02
 1\1\GINC-N0293\FOpt\RM062X\6-311+G(d)\C5H13N1O2\WAB665\08-Mar-2017\0\\
 # opt M062X/6-311+G* geom=connectivity\\Title Card Required\\0,1\C,0.7
 198943089,-0.3603817877,2.0257625123\H,0.6050311957,-1.2850742779,2.59
 73336389\H,1.3305671159,-0.5870147859,1.1485117939\H,-0.2695250412,-0.
 0604097859,1.675644942\C,1.3681132265,0.7302437643,2.872944072\H,1.444
 3960794,1.6531660016,2.2880492716\H,0.7284688855,0.9603267253,3.732272
 5054\C,2.7582359792,0.3296343352,3.3612906644\H,3.4020118835,0.1044766
 667,2.504792072\H,2.6838732559,-0.5928086524,3.9522987438\C,3.41172054
 41,1.4149510555,4.203909252\H,2.7741997661,1.6594529157,5.0620928332\H
 ,3.5241256087,2.3253151897,3.6083711638\N,4.7631295977,0.9945691773,4.
 6257344562\H,5.1840899988,1.6950952115,5.2282573832\H,4.7045350751,0.1
 399500658,5.1724719526\H,5.6034872697,0.8335693641,3.1258209925\C,7.13
 47005936,0.1621225344,2.1745361922\H,7.4834147373,-0.1558399441,3.1754
 798677\O,5.9610292111,0.7766674501,2.1944686419\O,7.7723580586,-0.0419
 956233,1.1853496181\\Version=EM64L-G09RevA.02\State=1-A\HF=-403.491684
 4\RMSD=6.108e-09\RMSF=1.585e-05\Dipole=-1.4789001,0.2825392,2.3822286\
 Quadrupole=-6.0016233,3.7935006,2.2081227,1.3422756,10.2330387,-0.0818
 301\PG=C01 [X(C5H13N1O2)]\\@


 ART, GLORY, FREEDOM FAIL, BUT NATURE STILL IS FAIR.

                                           -- BYRON
 Job cpu time:  0 days  7 hours 40 minutes 41.9 seconds.
 File lengths (MBytes):  RWF=    166 Int=      0 D2E=      0 Chk=      6 Scr=      4
 Normal termination of Gaussian 09 at Wed Mar  8 19:00:09 2017.
