 Entering Gaussian System, Link 0=g09
 Input=Ethene_CCSD_6-31Gd.com
 Output=Ethene_CCSD_6-31Gd.log
 Initial command:
 /sw/contrib/gaussian/g09/E01/g09/l1.exe "/scr/Gau-27129.inp" -scrdir="/scr/"
 Entering Link 1 = /sw/contrib/gaussian/g09/E01/g09/l1.exe PID=     27130.
  
 Copyright (c) 1988,1990,1992,1993,1995,1998,2003,2009,2015,
            Gaussian, Inc.  All Rights Reserved.
  
 This is part of the Gaussian(R) 09 program.  It is based on
 the Gaussian(R) 03 system (copyright 2003, Gaussian, Inc.),
 the Gaussian(R) 98 system (copyright 1998, Gaussian, Inc.),
 the Gaussian(R) 94 system (copyright 1995, Gaussian, Inc.),
 the Gaussian 92(TM) system (copyright 1992, Gaussian, Inc.),
 the Gaussian 90(TM) system (copyright 1990, Gaussian, Inc.),
 the Gaussian 88(TM) system (copyright 1988, Gaussian, Inc.),
 the Gaussian 86(TM) system (copyright 1986, Carnegie Mellon
 University), and the Gaussian 82(TM) system (copyright 1983,
 Carnegie Mellon University). Gaussian is a federally registered
 trademark of Gaussian, Inc.
  
 This software contains proprietary and confidential information,
 including trade secrets, belonging to Gaussian, Inc.
  
 This software is provided under written license and may be
 used, copied, transmitted, or stored only in accord with that
 written license.
  
 The following legend is applicable only to US Government
 contracts under FAR:
  
                    RESTRICTED RIGHTS LEGEND
  
 Use, reproduction and disclosure by the US Government is
 subject to restrictions as set forth in subparagraphs (a)
 and (c) of the Commercial Computer Software - Restricted
 Rights clause in FAR 52.227-19.
  
 Gaussian, Inc.
 340 Quinnipiac St., Bldg. 40, Wallingford CT 06492
  
  
 ---------------------------------------------------------------
 Warning -- This program may not be used in any manner that
 competes with the business of Gaussian, Inc. or will provide
 assistance to any competitor of Gaussian, Inc.  The licensee
 of this program is prohibited from giving any competitor of
 Gaussian, Inc. access to this program.  By using this program,
 the user acknowledges that Gaussian, Inc. is engaged in the
 business of creating and licensing software in the field of
 computational chemistry and represents and warrants to the
 licensee that it is not a competitor of Gaussian, Inc. and that
 it will not use this program in any manner prohibited above.
 ---------------------------------------------------------------
  

 Cite this work as:
 Gaussian 09, Revision E.01,
 M. J. Frisch, G. W. Trucks, H. B. Schlegel, G. E. Scuseria, 
 M. A. Robb, J. R. Cheeseman, G. Scalmani, V. Barone, B. Mennucci, 
 G. A. Petersson, H. Nakatsuji, M. Caricato, X. Li, H. P. Hratchian, 
 A. F. Izmaylov, J. Bloino, G. Zheng, J. L. Sonnenberg, M. Hada, 
 M. Ehara, K. Toyota, R. Fukuda, J. Hasegawa, M. Ishida, T. Nakajima, 
 Y. Honda, O. Kitao, H. Nakai, T. Vreven, J. A. Montgomery, Jr., 
 J. E. Peralta, F. Ogliaro, M. Bearpark, J. J. Heyd, E. Brothers, 
 K. N. Kudin, V. N. Staroverov, T. Keith, R. Kobayashi, J. Normand, 
 K. Raghavachari, A. Rendell, J. C. Burant, S. S. Iyengar, J. Tomasi, 
 M. Cossi, N. Rega, J. M. Millam, M. Klene, J. E. Knox, J. B. Cross, 
 V. Bakken, C. Adamo, J. Jaramillo, R. Gomperts, R. E. Stratmann, 
 O. Yazyev, A. J. Austin, R. Cammi, C. Pomelli, J. W. Ochterski, 
 R. L. Martin, K. Morokuma, V. G. Zakrzewski, G. A. Voth, 
 P. Salvador, J. J. Dannenberg, S. Dapprich, A. D. Daniels, 
 O. Farkas, J. B. Foresman, J. V. Ortiz, J. Cioslowski, 
 and D. J. Fox, Gaussian, Inc., Wallingford CT, 2013.
 
 ******************************************
 Gaussian 09:  ES64L-G09RevE.01 30-Nov-2015
                21-Feb-2017 
 ******************************************
 %NProcShared=8
 Will use up to    8 processors via shared memory.
 --------------------
 #n CCSD/6-31G(d) Opt
 --------------------
 1/18=20,19=15,38=1/1,3;
 2/9=110,12=2,17=6,18=5,40=1/2;
 3/5=1,6=6,7=1,11=9,16=1,25=1,30=1,71=1/1,2,3;
 4//1;
 5/5=2,38=5/2;
 8/6=4,9=120000,10=2/1,4;
 9/5=7,15=1/13;
 11/28=-8,29=200,42=3/11;
 10/5=6/2;
 6/7=2,8=2,9=2,10=2/1;
 7/12=7/1,2,3,16;
 1/18=20,19=15/3(2);
 2/9=110/2;
 99//99;
 2/9=110/2;
 3/5=1,6=6,7=1,11=9,16=1,25=1,30=1,71=1/1,2,3;
 4/5=5,16=3,69=1/1;
 5/5=2,38=5/2;
 8/6=4,9=120000,10=2/1,4;
 9/5=7,15=1/13;
 11/28=-8,29=200,42=3/11;
 10/5=6/2;
 7/12=7/1,2,3,16;
 1/18=20,19=15/3(-9);
 2/9=110/2;
 6/7=2,8=2,9=2,10=2/1;
 99//99;
 ------------------
 Ethene CCSD 6-31Gd
 ------------------
 Symbolic Z-matrix:
 Charge =  0 Multiplicity = 1
 C                    -7.65068   3.04127   0. 
 C                    -6.33127   2.92512   0. 
 H                    -8.2108    3.09095  -0.93056 
 H                    -8.21086   3.09021   0.93056 
 H                    -5.77109   2.87619  -0.93056 
 H                    -5.77115   2.87544   0.93056 
 

 GradGradGradGradGradGradGradGradGradGradGradGradGradGradGradGradGradGrad
 Berny optimization.
 Initialization pass.
                           ----------------------------
                           !    Initial Parameters    !
                           ! (Angstroms and Degrees)  !
 --------------------------                            --------------------------
 ! Name  Definition              Value          Derivative Info.                !
 --------------------------------------------------------------------------------
 ! R1    R(1,2)                  1.3245         estimate D2E/DX2                !
 ! R2    R(1,3)                  1.0873         estimate D2E/DX2                !
 ! R3    R(1,4)                  1.0873         estimate D2E/DX2                !
 ! R4    R(2,5)                  1.0873         estimate D2E/DX2                !
 ! R5    R(2,6)                  1.0873         estimate D2E/DX2                !
 ! A1    A(2,1,3)              121.1437         estimate D2E/DX2                !
 ! A2    A(2,1,4)              121.1435         estimate D2E/DX2                !
 ! A3    A(3,1,4)              117.7128         estimate D2E/DX2                !
 ! A4    A(1,2,5)              121.1435         estimate D2E/DX2                !
 ! A5    A(1,2,6)              121.1437         estimate D2E/DX2                !
 ! A6    A(5,2,6)              117.7128         estimate D2E/DX2                !
 ! D1    D(3,1,2,5)              0.0007         estimate D2E/DX2                !
 ! D2    D(3,1,2,6)            180.0            estimate D2E/DX2                !
 ! D3    D(4,1,2,5)           -179.9994         estimate D2E/DX2                !
 ! D4    D(4,1,2,6)             -0.0001         estimate D2E/DX2                !
 --------------------------------------------------------------------------------
 Trust Radius=3.00D-01 FncErr=1.00D-07 GrdErr=1.00D-07
 Number of steps in this run=     25 maximum allowed number of steps=    100.
 GradGradGradGradGradGradGradGradGradGradGradGradGradGradGradGradGradGrad

                          Input orientation:                          
 ---------------------------------------------------------------------
 Center     Atomic      Atomic             Coordinates (Angstroms)
 Number     Number       Type             X           Y           Z
 ---------------------------------------------------------------------
      1          6           0       -7.650680    3.041270    0.000000
      2          6           0       -6.331270    2.925120    0.000000
      3          1           0       -8.210800    3.090950   -0.930560
      4          1           0       -8.210860    3.090210    0.930560
      5          1           0       -5.771090    2.876190   -0.930560
      6          1           0       -5.771150    2.875440    0.930560
 ---------------------------------------------------------------------
                    Distance matrix (angstroms):
                    1          2          3          4          5
     1  C    0.000000
     2  C    1.324513   0.000000
     3  H    1.087265   2.103824   0.000000
     4  H    1.087262   2.103819   1.861120   0.000000
     5  H    2.103818   1.087262   2.449144   3.076045   0.000000
     6  H    2.103824   1.087265   3.076053   2.449145   1.861120
                    6
     6  H    0.000000
 Stoichiometry    C2H4
 Framework group  C1[X(C2H4)]
 Deg. of freedom    12
 Full point group                 C1      NOp   1
 Largest Abelian subgroup         C1      NOp   1
 Largest concise Abelian subgroup C1      NOp   1
                         Standard orientation:                         
 ---------------------------------------------------------------------
 Center     Atomic      Atomic             Coordinates (Angstroms)
 Number     Number       Type             X           Y           Z
 ---------------------------------------------------------------------
      1          6           0       -0.662256   -0.000001    0.000000
      2          6           0        0.662256    0.000001   -0.000002
      3          1           0       -1.224576    0.930558   -0.000002
      4          1           0       -1.224569   -0.930562    0.000003
      5          1           0        1.224568    0.930562    0.000006
      6          1           0        1.224576   -0.930558    0.000001
 ---------------------------------------------------------------------
 Rotational constants (GHZ):    144.7715521     30.4973425     25.1907084
 Standard basis: 6-31G(d) (6D, 7F)
 There are    38 symmetry adapted cartesian basis functions of A   symmetry.
 There are    38 symmetry adapted basis functions of A   symmetry.
    38 basis functions,    72 primitive gaussians,    38 cartesian basis functions
     8 alpha electrons        8 beta electrons
       nuclear repulsion energy        33.4454879269 Hartrees.
 NAtoms=    6 NActive=    6 NUniq=    6 SFac= 1.00D+00 NAtFMM=   60 NAOKFM=F Big=F
 Integral buffers will be    131072 words long.
 Raffenetti 1 integral format.
 Two-electron integral symmetry is turned on.
 One-electron integrals computed using PRISM.
 NBasis=    38 RedAO= T EigKep=  7.40D-03  NBF=    38
 NBsUse=    38 1.00D-06 EigRej= -1.00D+00 NBFU=    38
 ExpMin= 1.61D-01 ExpMax= 3.05D+03 ExpMxC= 4.57D+02 IAcc=1 IRadAn=         1 AccDes= 0.00D+00
 Harris functional with IExCor=  205 and IRadAn=       1 diagonalized for initial guess.
 HarFok:  IExCor=  205 AccDes= 0.00D+00 IRadAn=         1 IDoV= 1 UseB2=F ITyADJ=14
 ICtDFT=  3500011 ScaDFX=  1.000000  1.000000  1.000000  1.000000
 FoFCou: FMM=F IPFlag=           0 FMFlag=      100000 FMFlg1=           0
         NFxFlg=           0 DoJE=T BraDBF=F KetDBF=T FulRan=T
         wScrn=  0.000000 ICntrl=     500 IOpCl=  0 I1Cent=   200000004 NGrid=           0
         NMat0=    1 NMatS0=      1 NMatT0=    0 NMatD0=    1 NMtDS0=    0 NMtDT0=    0
 Petite list used in FoFCou.
 Keep R1 ints in memory in canonical form, NReq=1133007.
 Requested convergence on RMS density matrix=1.00D-08 within 128 cycles.
 Requested convergence on MAX density matrix=1.00D-06.
 Requested convergence on             energy=1.00D-06.
 No special actions if energy rises.
 SCF Done:  E(RHF) =  -78.0311719265     A.U. after    9 cycles
            NFock=  9  Conv=0.23D-08     -V/T= 2.0018
 ExpMin= 1.61D-01 ExpMax= 3.05D+03 ExpMxC= 4.57D+02 IAcc=3 IRadAn=         5 AccDes= 0.00D+00
 HarFok:  IExCor=  205 AccDes= 0.00D+00 IRadAn=         5 IDoV=-2 UseB2=F ITyADJ=14
 ICtDFT= 12500011 ScaDFX=  1.000000  1.000000  1.000000  1.000000
 Range of M.O.s used for correlation:     3    38
 NBasis=    38 NAE=     8 NBE=     8 NFC=     2 NFV=     0
 NROrb=     36 NOA=     6 NOB=     6 NVA=    30 NVB=    30
 Semi-Direct transformation.
 ModeAB=           2 MOrb=             6 LenV=      33369307
 LASXX=       120045 LTotXX=      120045 LenRXX=      120045
 LTotAB=      130086 MaxLAS=      160056 LenRXY=      160056
 NonZer=      240090 LenScr=      785920 LnRSAI=           0
 LnScr1=           0 LExtra=           0 Total=      1066021
 MaxDsk=          -1 SrtSym=           F ITran=            4
 JobTyp=0 Pass  1:  I=   1 to   6.
 (rs|ai) integrals will be sorted in core.
 SymMOI:  orbitals are not symmetric.
 Spin components of T(2) and E(2):
     alpha-alpha T2 =       0.1000486371D-01 E2=     -0.2859933519D-01
     alpha-beta  T2 =       0.7127015092D-01 E2=     -0.1963810788D+00
     beta-beta   T2 =       0.1000486371D-01 E2=     -0.2859933519D-01
 ANorm=    0.1044643422D+01
 E2 =    -0.2535797491D+00 EUMP2 =    -0.78284751675666D+02
 Keep R2 and R3 ints in memory in canonical form, NReq=1371092.
 Iterations=  50 Convergence= 0.100D-07
 Iteration Nr.   1
 **********************
 DD1Dir will call FoFMem   1 times, MxPair=        42
 NAB=    21 NAA=     0 NBB=     0.
 MP4(R+Q)=  0.47130443D-02
 E3=       -0.20988685D-01        EUMP3=      -0.78305740361D+02
 E4(DQ)=   -0.27143323D-02        UMP4(DQ)=   -0.78308454693D+02
 E4(SDQ)=  -0.53513832D-02        UMP4(SDQ)=  -0.78311091744D+02
 DE(Corr)= -0.26966842     E(Corr)=     -78.300840351    
 NORM(A)=   0.10533753D+01
 Iteration Nr.   2
 **********************
 DD1Dir will call FoFMem   1 times, MxPair=        42
 NAB=    21 NAA=     0 NBB=     0.
 DE(Corr)= -0.27808937     E(CORR)=     -78.309261298     Delta=-8.42D-03
 NORM(A)=   0.10592371D+01
 Iteration Nr.   3
 **********************
 DD1Dir will call FoFMem   1 times, MxPair=        42
 NAB=    21 NAA=     0 NBB=     0.
 DE(Corr)= -0.28025745     E(CORR)=     -78.311429380     Delta=-2.17D-03
 NORM(A)=   0.10608386D+01
 Iteration Nr.   4
 **********************
 DD1Dir will call FoFMem   1 times, MxPair=        42
 NAB=    21 NAA=     0 NBB=     0.
 DE(Corr)= -0.28106908     E(CORR)=     -78.312241006     Delta=-8.12D-04
 NORM(A)=   0.10612561D+01
 Iteration Nr.   5
 **********************
 DD1Dir will call FoFMem   1 times, MxPair=        42
 NAB=    21 NAA=     0 NBB=     0.
 DE(Corr)= -0.28115901     E(CORR)=     -78.312330941     Delta=-8.99D-05
 NORM(A)=   0.10612837D+01
 Iteration Nr.   6
 **********************
 DD1Dir will call FoFMem   1 times, MxPair=        42
 NAB=    21 NAA=     0 NBB=     0.
 DE(Corr)= -0.28116075     E(CORR)=     -78.312332679     Delta=-1.74D-06
 NORM(A)=   0.10612840D+01
 Iteration Nr.   7
 **********************
 DD1Dir will call FoFMem   1 times, MxPair=        42
 NAB=    21 NAA=     0 NBB=     0.
 DE(Corr)= -0.28116034     E(CORR)=     -78.312332271     Delta= 4.08D-07
 NORM(A)=   0.10612857D+01
 Iteration Nr.   8
 **********************
 DD1Dir will call FoFMem   1 times, MxPair=        42
 NAB=    21 NAA=     0 NBB=     0.
 DE(Corr)= -0.28116042     E(CORR)=     -78.312332346     Delta=-7.50D-08
 NORM(A)=   0.10612855D+01
 Iteration Nr.   9
 **********************
 DD1Dir will call FoFMem   1 times, MxPair=        42
 NAB=    21 NAA=     0 NBB=     0.
 DE(Corr)= -0.28116050     E(CORR)=     -78.312332430     Delta=-8.38D-08
 NORM(A)=   0.10612856D+01
 Iteration Nr.  10
 **********************
 DD1Dir will call FoFMem   1 times, MxPair=        42
 NAB=    21 NAA=     0 NBB=     0.
 DE(Corr)= -0.28116051     E(CORR)=     -78.312332439     Delta=-8.96D-09
 NORM(A)=   0.10612856D+01
 Iteration Nr.  11
 **********************
 DD1Dir will call FoFMem   1 times, MxPair=        42
 NAB=    21 NAA=     0 NBB=     0.
 DE(Corr)= -0.28116052     E(CORR)=     -78.312332451     Delta=-1.20D-08
 NORM(A)=   0.10612856D+01
 Iteration Nr.  12
 **********************
 DD1Dir will call FoFMem   1 times, MxPair=        42
 NAB=    21 NAA=     0 NBB=     0.
 DE(Corr)= -0.28116053     E(CORR)=     -78.312332455     Delta=-3.95D-09
 NORM(A)=   0.10612856D+01
 Dominant configurations:
 ***********************
 Spin Case        I    J    A    B          Value
   ABAB           8    8    9    9      -0.143958D+00
 Largest amplitude= 1.44D-01

 Z-AMPLITUDE ITERATIONS

 Iteration Nr.   1
 **********************
 DD1Dir will call FoFMem   1 times, MxPair=        42
 NAB=    21 NAA=     0 NBB=     0.
 DE(Z)  -0.27358264D+00          E(Z)=    -0.78304754567D+02
 NORM(A)=   0.10612921D+01
 Iteration Nr.   2
 **********************
 DD1Dir will call FoFMem   1 times, MxPair=        42
 NAB=    21 NAA=     0 NBB=     0.
 DE(Z)  -0.27358463D+00          E(Z)=    -0.78304756560D+02
 NORM(A)=   0.10612811D+01
 Iteration Nr.   3
 **********************
 DD1Dir will call FoFMem   1 times, MxPair=        42
 NAB=    21 NAA=     0 NBB=     0.
 DE(Z)  -0.27358137D+00          E(Z)=    -0.78304753292D+02
 NORM(A)=   0.10612825D+01
 Iteration Nr.   4
 **********************
 DD1Dir will call FoFMem   1 times, MxPair=        42
 NAB=    21 NAA=     0 NBB=     0.
 DE(Z)  -0.27358177D+00          E(Z)=    -0.78304753694D+02
 NORM(A)=   0.10612810D+01
 Iteration Nr.   5
 **********************
 DD1Dir will call FoFMem   1 times, MxPair=        42
 NAB=    21 NAA=     0 NBB=     0.
 DE(Z)  -0.27358134D+00          E(Z)=    -0.78304753271D+02
 NORM(A)=   0.10567667D+01
 Iteration Nr.   6
 **********************
 DD1Dir will call FoFMem   1 times, MxPair=        42
 NAB=    21 NAA=     0 NBB=     0.
 DE(Z)  -0.27223003D+00          E(Z)=    -0.78303401955D+02
 NORM(A)=   0.10567663D+01
 Iteration Nr.   7
 **********************
 DD1Dir will call FoFMem   1 times, MxPair=        42
 NAB=    21 NAA=     0 NBB=     0.
 DE(Z)  -0.27222989D+00          E(Z)=    -0.78303401820D+02
 NORM(A)=   0.10567658D+01
 Iteration Nr.   8
 **********************
 DD1Dir will call FoFMem   1 times, MxPair=        42
 NAB=    21 NAA=     0 NBB=     0.
 DE(Z)  -0.27222980D+00          E(Z)=    -0.78303401727D+02
 NORM(A)=   0.10567657D+01
 Iteration Nr.   9
 **********************
 DD1Dir will call FoFMem   1 times, MxPair=        42
 NAB=    21 NAA=     0 NBB=     0.
 DE(Z)  -0.27222977D+00          E(Z)=    -0.78303401696D+02
 NORM(A)=   0.10567656D+01
 Iteration Nr.  10
 **********************
 DD1Dir will call FoFMem   1 times, MxPair=        42
 NAB=    21 NAA=     0 NBB=     0.
 DE(Z)  -0.27222976D+00          E(Z)=    -0.78303401691D+02
 NORM(A)=   0.10567656D+01
 Discarding MO integrals.
          IDoAtm=111111
          Differentiating once with respect to electric field.
                with respect to dipole field.
          Differentiating once with respect to nuclear coordinates.
 Keep R1 ints in memory in canonical form, NReq=1116621.
          There are     1 degrees of freedom in the 1st order CPHF.  IDoFFX=0 NUNeed=     1.
 LinEq1:  Iter=  0 NonCon=     1 RMS=6.56D-03 Max=7.65D-02 NDo=     1
 AX will form     1 AO Fock derivatives at one time.
 LinEq1:  Iter=  1 NonCon=     1 RMS=2.06D-03 Max=1.61D-02 NDo=     1
 LinEq1:  Iter=  2 NonCon=     1 RMS=2.96D-04 Max=2.59D-03 NDo=     1
 LinEq1:  Iter=  3 NonCon=     1 RMS=4.09D-05 Max=2.14D-04 NDo=     1
 LinEq1:  Iter=  4 NonCon=     1 RMS=3.68D-06 Max=2.46D-05 NDo=     1
 LinEq1:  Iter=  5 NonCon=     1 RMS=3.05D-07 Max=2.04D-06 NDo=     1
 LinEq1:  Iter=  6 NonCon=     1 RMS=2.19D-08 Max=1.59D-07 NDo=     1
 LinEq1:  Iter=  7 NonCon=     1 RMS=1.48D-09 Max=9.40D-09 NDo=     1
 LinEq1:  Iter=  8 NonCon=     0 RMS=8.27D-11 Max=4.80D-10 NDo=     1
 Linear equations converged to 1.000D-10 1.000D-09 after     8 iterations.
 End of Minotr F.D. properties file   721 does not exist.
 End of Minotr F.D. properties file   722 does not exist.
 End of Minotr F.D. properties file   788 does not exist.

 **********************************************************************

            Population analysis using the SCF density.

 **********************************************************************

 Orbital symmetries:
       Occupied  (A) (A) (A) (A) (A) (A) (A) (A)
       Virtual   (A) (A) (A) (A) (A) (A) (A) (A) (A) (A) (A) (A)
                 (A) (A) (A) (A) (A) (A) (A) (A) (A) (A) (A) (A)
                 (A) (A) (A) (A) (A) (A)
 The electronic state is 1-A.
 Alpha  occ. eigenvalues --  -11.22798 -11.22625  -1.02987  -0.78419  -0.63876
 Alpha  occ. eigenvalues --   -0.58053  -0.50129  -0.37286
 Alpha virt. eigenvalues --    0.18225   0.26274   0.29035   0.30823   0.39099
 Alpha virt. eigenvalues --    0.49122   0.66355   0.77362   0.77525   0.85073
 Alpha virt. eigenvalues --    0.89200   0.96310   1.10519   1.15737   1.19697
 Alpha virt. eigenvalues --    1.20682   1.33965   1.49389   1.74565   1.81807
 Alpha virt. eigenvalues --    2.13468   2.19616   2.31681   2.41619   2.63113
 Alpha virt. eigenvalues --    2.72423   3.04428   3.07995   4.52338   4.66854
          Condensed to atoms (all electrons):
               1          2          3          4          5          6
     1  C    5.000749   0.639914   0.396555   0.396555  -0.040370  -0.040369
     2  C    0.639914   5.000749  -0.040369  -0.040370   0.396555   0.396555
     3  H    0.396555  -0.040369   0.494798  -0.026892  -0.003587   0.002978
     4  H    0.396555  -0.040370  -0.026892   0.494799   0.002978  -0.003587
     5  H   -0.040370   0.396555  -0.003587   0.002978   0.494798  -0.026892
     6  H   -0.040369   0.396555   0.002978  -0.003587  -0.026892   0.494798
 Mulliken charges:
               1
     1  C   -0.353034
     2  C   -0.353034
     3  H    0.176517
     4  H    0.176517
     5  H    0.176517
     6  H    0.176517
 Sum of Mulliken charges =   0.00000
 Mulliken charges with hydrogens summed into heavy atoms:
               1
     1  C    0.000000
     2  C    0.000000
 Electronic spatial extent (au):  <R**2>=             82.1257
 Charge=              0.0000 electrons
 Dipole moment (field-independent basis, Debye):
    X=              0.0000    Y=              0.0000    Z=              0.0000  Tot=              0.0000
 Quadrupole moment (field-independent basis, Debye-Ang):
   XX=            -12.0967   YY=            -12.1767   ZZ=            -15.4609
   XY=              0.0000   XZ=              0.0000   YZ=              0.0000
 Traceless Quadrupole moment (field-independent basis, Debye-Ang):
   XX=              1.1481   YY=              1.0680   ZZ=             -2.2161
   XY=              0.0000   XZ=              0.0000   YZ=              0.0000
 Octapole moment (field-independent basis, Debye-Ang**2):
  XXX=              0.0000  YYY=              0.0000  ZZZ=              0.0000  XYY=              0.0000
  XXY=              0.0000  XXZ=              0.0000  XZZ=              0.0000  YZZ=              0.0000
  YYZ=              0.0000  XYZ=              0.0000
 Hexadecapole moment (field-independent basis, Debye-Ang**3):
 XXXX=            -66.1612 YYYY=            -25.9819 ZZZZ=            -16.5842 XXXY=             -0.0001
 XXXZ=              0.0000 YYYX=              0.0000 YYYZ=              0.0000 ZZZX=              0.0000
 ZZZY=              0.0000 XXYY=            -12.8436 XXZZ=            -14.7225 YYZZ=             -7.7573
 XXYZ=              0.0000 YYXZ=              0.0000 ZZXY=              0.0000
 N-N= 3.344548792691D+01 E-N=-2.481229101736D+02  KE= 7.789306701425D+01
 Calling FoFJK, ICntrl=  10002127 FMM=F ISym2X=0 I1Cent= 0 IOpClX= 0 NMat=1 NMatS=1 NMatT=0.
 ***** Axes restored to original set *****
 -------------------------------------------------------------------
 Center     Atomic                   Forces (Hartrees/Bohr)
 Number     Number              X              Y              Z
 -------------------------------------------------------------------
      1        6          -0.013261605    0.001167202   -0.000000817
      2        6           0.013261416   -0.001166604    0.000001068
      3        1          -0.002349927    0.000206734    0.000820035
      4        1          -0.002351224    0.000207099   -0.000818572
      5        1           0.002351383   -0.000207813    0.000818345
      6        1           0.002349957   -0.000206618   -0.000820059
 -------------------------------------------------------------------
 Cartesian Forces:  Max     0.013261605 RMS     0.004591154

 GradGradGradGradGradGradGradGradGradGradGradGradGradGradGradGradGradGrad
 Berny optimization.
 FormGI is forming the generalized inverse of G from B-inverse, IUseBI=4.
 Internal  Forces:  Max     0.018032201 RMS     0.004897898
 Search for a local minimum.
 Step number   1 out of a maximum of   25
 All quantities printed in internal units (Hartrees-Bohrs-Radians)
 Mixed Optimization -- RFO/linear search
 Second derivative matrix not updated -- first step.
 The second derivative matrix:
                          R1        R2        R3        R4        R5
           R1           0.60821
           R2           0.00000   0.35131
           R3           0.00000   0.00000   0.35131
           R4           0.00000   0.00000   0.00000   0.35131
           R5           0.00000   0.00000   0.00000   0.00000   0.35131
           A1           0.00000   0.00000   0.00000   0.00000   0.00000
           A2           0.00000   0.00000   0.00000   0.00000   0.00000
           A3           0.00000   0.00000   0.00000   0.00000   0.00000
           A4           0.00000   0.00000   0.00000   0.00000   0.00000
           A5           0.00000   0.00000   0.00000   0.00000   0.00000
           A6           0.00000   0.00000   0.00000   0.00000   0.00000
           D1           0.00000   0.00000   0.00000   0.00000   0.00000
           D2           0.00000   0.00000   0.00000   0.00000   0.00000
           D3           0.00000   0.00000   0.00000   0.00000   0.00000
           D4           0.00000   0.00000   0.00000   0.00000   0.00000
                          A1        A2        A3        A4        A5
           A1           0.16000
           A2           0.00000   0.16000
           A3           0.00000   0.00000   0.16000
           A4           0.00000   0.00000   0.00000   0.16000
           A5           0.00000   0.00000   0.00000   0.00000   0.16000
           A6           0.00000   0.00000   0.00000   0.00000   0.00000
           D1           0.00000   0.00000   0.00000   0.00000   0.00000
           D2           0.00000   0.00000   0.00000   0.00000   0.00000
           D3           0.00000   0.00000   0.00000   0.00000   0.00000
           D4           0.00000   0.00000   0.00000   0.00000   0.00000
                          A6        D1        D2        D3        D4
           A6           0.16000
           D1           0.00000   0.03087
           D2           0.00000   0.00000   0.03087
           D3           0.00000   0.00000   0.00000   0.03087
           D4           0.00000   0.00000   0.00000   0.00000   0.03087
 ITU=  0
     Eigenvalues ---    0.03087   0.03087   0.03087   0.16000   0.16000
     Eigenvalues ---    0.16000   0.16000   0.35131   0.35131   0.35131
     Eigenvalues ---    0.35131   0.60821
 RFO step:  Lambda=-7.46066020D-04 EMin= 3.08730960D-02
 Linear search not attempted -- first point.
 Iteration  1 RMS(Cart)=  0.01899577 RMS(Int)=  0.00005787
 Iteration  2 RMS(Cart)=  0.00005805 RMS(Int)=  0.00000000
 Iteration  3 RMS(Cart)=  0.00000000 RMS(Int)=  0.00000000
 Variable       Old X    -DE/DX   Delta X   Delta X   Delta X     New X
                                 (Linear)    (Quad)   (Total)
    R1        2.50297   0.01803   0.00000   0.02961   0.02961   2.53258
    R2        2.05463   0.00052   0.00000   0.00147   0.00147   2.05610
    R3        2.05463   0.00052   0.00000   0.00148   0.00148   2.05610
    R4        2.05463   0.00052   0.00000   0.00148   0.00148   2.05610
    R5        2.05463   0.00052   0.00000   0.00147   0.00147   2.05610
    A1        2.11436   0.00167   0.00000   0.01041   0.01041   2.12476
    A2        2.11435   0.00167   0.00000   0.01041   0.01041   2.12477
    A3        2.05448  -0.00335   0.00000  -0.02082  -0.02082   2.03366
    A4        2.11435   0.00167   0.00000   0.01041   0.01041   2.12476
    A5        2.11436   0.00167   0.00000   0.01041   0.01041   2.12476
    A6        2.05448  -0.00335   0.00000  -0.02082  -0.02082   2.03366
    D1        0.00001   0.00000   0.00000  -0.00001  -0.00001   0.00000
    D2        3.14159   0.00000   0.00000   0.00000   0.00000  -3.14159
    D3       -3.14158   0.00000   0.00000  -0.00001  -0.00001   3.14159
    D4        0.00000   0.00000   0.00000   0.00000   0.00000   0.00000
         Item               Value     Threshold  Converged?
 Maximum Force            0.018032     0.000450     NO 
 RMS     Force            0.004898     0.000300     NO 
 Maximum Displacement     0.033703     0.001800     NO 
 RMS     Displacement     0.018989     0.001200     NO 
 Predicted change in Energy=-3.738503D-04
 GradGradGradGradGradGradGradGradGradGradGradGradGradGradGradGradGradGrad

                          Input orientation:                          
 ---------------------------------------------------------------------
 Center     Atomic      Atomic             Coordinates (Angstroms)
 Number     Number       Type             X           Y           Z
 ---------------------------------------------------------------------
      1          6           0       -7.658485    3.041958    0.000001
      2          6           0       -6.323465    2.924437   -0.000001
      3          1           0       -8.228631    3.092519   -0.925318
      4          1           0       -8.228695    3.091779    0.925321
      5          1           0       -5.753255    2.874613   -0.925321
      6          1           0       -5.753319    2.873873    0.925318
 ---------------------------------------------------------------------
                    Distance matrix (angstroms):
                    1          2          3          4          5
     1  C    0.000000
     2  C    1.340182   0.000000
     3  H    1.088044   2.124646   0.000000
     4  H    1.088044   2.124647   1.850639   0.000000
     5  H    2.124647   1.088044   2.484949   3.098361   0.000000
     6  H    2.124646   1.088044   3.098360   2.484949   1.850640
                    6
     6  H    0.000000
 Stoichiometry    C2H4
 Framework group  C1[X(C2H4)]
 Deg. of freedom    12
 Full point group                 C1      NOp   1
 Largest Abelian subgroup         C1      NOp   1
 Largest concise Abelian subgroup C1      NOp   1
                         Standard orientation:                         
 ---------------------------------------------------------------------
 Center     Atomic      Atomic             Coordinates (Angstroms)
 Number     Number       Type             X           Y           Z
 ---------------------------------------------------------------------
      1          6           0       -0.670091    0.000000    0.000000
      2          6           0        0.670091    0.000000    0.000000
      3          1           0       -1.242474    0.925320   -0.000001
      4          1           0       -1.242475   -0.925319   -0.000001
      5          1           0        1.242475    0.925320   -0.000001
      6          1           0        1.242474   -0.925320   -0.000001
 ---------------------------------------------------------------------
 Rotational constants (GHZ):    146.4159540     29.7284851     24.7111094
 Standard basis: 6-31G(d) (6D, 7F)
 There are    38 symmetry adapted cartesian basis functions of A   symmetry.
 There are    38 symmetry adapted basis functions of A   symmetry.
    38 basis functions,    72 primitive gaussians,    38 cartesian basis functions
     8 alpha electrons        8 beta electrons
       nuclear repulsion energy        33.2042839044 Hartrees.
 NAtoms=    6 NActive=    6 NUniq=    6 SFac= 1.00D+00 NAtFMM=   60 NAOKFM=F Big=F
 Integral buffers will be    131072 words long.
 Raffenetti 1 integral format.
 Two-electron integral symmetry is turned on.
 One-electron integrals computed using PRISM.
 NBasis=    38 RedAO= T EigKep=  7.88D-03  NBF=    38
 NBsUse=    38 1.00D-06 EigRej= -1.00D+00 NBFU=    38
 Initial guess from the checkpoint file:  "/scr/Gau-27130.chk"
 B after Tr=     0.000000    0.000000    0.000000
         Rot=    1.000000    0.000000    0.000000    0.000001 Ang=   0.00 deg.
 ExpMin= 1.61D-01 ExpMax= 3.05D+03 ExpMxC= 4.57D+02 IAcc=1 IRadAn=         1 AccDes= 0.00D+00
 Harris functional with IExCor=  205 and IRadAn=       1 diagonalized for initial guess.
 HarFok:  IExCor=  205 AccDes= 0.00D+00 IRadAn=         1 IDoV= 1 UseB2=F ITyADJ=14
 ICtDFT=  3500011 ScaDFX=  1.000000  1.000000  1.000000  1.000000
 FoFCou: FMM=F IPFlag=           0 FMFlag=      100000 FMFlg1=           0
         NFxFlg=           0 DoJE=T BraDBF=F KetDBF=T FulRan=T
         wScrn=  0.000000 ICntrl=     500 IOpCl=  0 I1Cent=   200000004 NGrid=           0
         NMat0=    1 NMatS0=      1 NMatT0=    0 NMatD0=    1 NMtDS0=    0 NMtDT0=    0
 Petite list used in FoFCou.
 Keep R1 ints in memory in canonical form, NReq=1133007.
 Requested convergence on RMS density matrix=1.00D-08 within 128 cycles.
 Requested convergence on MAX density matrix=1.00D-06.
 Requested convergence on             energy=1.00D-06.
 No special actions if energy rises.
 SCF Done:  E(RHF) =  -78.0305913624     A.U. after    7 cycles
            NFock=  7  Conv=0.70D-08     -V/T= 2.0025
 ExpMin= 1.61D-01 ExpMax= 3.05D+03 ExpMxC= 4.57D+02 IAcc=3 IRadAn=         5 AccDes= 0.00D+00
 HarFok:  IExCor=  205 AccDes= 0.00D+00 IRadAn=         5 IDoV=-2 UseB2=F ITyADJ=14
 ICtDFT= 12500011 ScaDFX=  1.000000  1.000000  1.000000  1.000000
 Range of M.O.s used for correlation:     3    38
 NBasis=    38 NAE=     8 NBE=     8 NFC=     2 NFV=     0
 NROrb=     36 NOA=     6 NOB=     6 NVA=    30 NVB=    30
 Semi-Direct transformation.
 ModeAB=           2 MOrb=             6 LenV=      33369307
 LASXX=       120045 LTotXX=      120045 LenRXX=      120045
 LTotAB=      130086 MaxLAS=      160056 LenRXY=      160056
 NonZer=      240090 LenScr=      785920 LnRSAI=           0
 LnScr1=           0 LExtra=           0 Total=      1066021
 MaxDsk=          -1 SrtSym=           F ITran=            4
 JobTyp=0 Pass  1:  I=   1 to   6.
 (rs|ai) integrals will be sorted in core.
 SymMOI:  orbitals are not symmetric.
 Spin components of T(2) and E(2):
     alpha-alpha T2 =       0.1010166367D-01 E2=     -0.2865324332D-01
     alpha-beta  T2 =       0.7216969810D-01 E2=     -0.1970886060D+00
     beta-beta   T2 =       0.1010166367D-01 E2=     -0.2865324332D-01
 ANorm=    0.1045166506D+01
 E2 =    -0.2543950926D+00 EUMP2 =    -0.78284986454964D+02
 Keep R2 and R3 ints in memory in canonical form, NReq=1371092.
 Iterations=  50 Convergence= 0.100D-07
 Iteration Nr.   1
 **********************
 DD1Dir will call FoFMem   1 times, MxPair=        42
 NAB=    21 NAA=     0 NBB=     0.
 MP4(R+Q)=  0.47867366D-02
 E3=       -0.20926178D-01        EUMP3=      -0.78305912633D+02
 E4(DQ)=   -0.27609103D-02        UMP4(DQ)=   -0.78308673543D+02
 E4(SDQ)=  -0.54903717D-02        UMP4(SDQ)=  -0.78311403005D+02
 DE(Corr)= -0.27033922     E(Corr)=     -78.300930584    
 NORM(A)=   0.10539624D+01
 Iteration Nr.   2
 **********************
 DD1Dir will call FoFMem   1 times, MxPair=        42
 NAB=    21 NAA=     0 NBB=     0.
 DE(Corr)= -0.27892206     E(CORR)=     -78.309513419     Delta=-8.58D-03
 NORM(A)=   0.10600371D+01
 Iteration Nr.   3
 **********************
 DD1Dir will call FoFMem   1 times, MxPair=        42
 NAB=    21 NAA=     0 NBB=     0.
 DE(Corr)= -0.28112237     E(CORR)=     -78.311713733     Delta=-2.20D-03
 NORM(A)=   0.10617409D+01
 Iteration Nr.   4
 **********************
 DD1Dir will call FoFMem   1 times, MxPair=        42
 NAB=    21 NAA=     0 NBB=     0.
 DE(Corr)= -0.28197399     E(CORR)=     -78.312565353     Delta=-8.52D-04
 NORM(A)=   0.10621936D+01
 Iteration Nr.   5
 **********************
 DD1Dir will call FoFMem   1 times, MxPair=        42
 NAB=    21 NAA=     0 NBB=     0.
 DE(Corr)= -0.28206997     E(CORR)=     -78.312661334     Delta=-9.60D-05
 NORM(A)=   0.10622235D+01
 Iteration Nr.   6
 **********************
 DD1Dir will call FoFMem   1 times, MxPair=        42
 NAB=    21 NAA=     0 NBB=     0.
 DE(Corr)= -0.28207178     E(CORR)=     -78.312663139     Delta=-1.80D-06
 NORM(A)=   0.10622239D+01
 Iteration Nr.   7
 **********************
 DD1Dir will call FoFMem   1 times, MxPair=        42
 NAB=    21 NAA=     0 NBB=     0.
 DE(Corr)= -0.28207135     E(CORR)=     -78.312662717     Delta= 4.22D-07
 NORM(A)=   0.10622258D+01
 Iteration Nr.   8
 **********************
 DD1Dir will call FoFMem   1 times, MxPair=        42
 NAB=    21 NAA=     0 NBB=     0.
 DE(Corr)= -0.28207143     E(CORR)=     -78.312662792     Delta=-7.54D-08
 NORM(A)=   0.10622256D+01
 Iteration Nr.   9
 **********************
 DD1Dir will call FoFMem   1 times, MxPair=        42
 NAB=    21 NAA=     0 NBB=     0.
 DE(Corr)= -0.28207152     E(CORR)=     -78.312662882     Delta=-8.96D-08
 NORM(A)=   0.10622257D+01
 Iteration Nr.  10
 **********************
 DD1Dir will call FoFMem   1 times, MxPair=        42
 NAB=    21 NAA=     0 NBB=     0.
 DE(Corr)= -0.28207153     E(CORR)=     -78.312662891     Delta=-8.99D-09
 NORM(A)=   0.10622257D+01
 Iteration Nr.  11
 **********************
 DD1Dir will call FoFMem   1 times, MxPair=        42
 NAB=    21 NAA=     0 NBB=     0.
 DE(Corr)= -0.28207154     E(CORR)=     -78.312662904     Delta=-1.31D-08
 NORM(A)=   0.10622257D+01
 Iteration Nr.  12
 **********************
 DD1Dir will call FoFMem   1 times, MxPair=        42
 NAB=    21 NAA=     0 NBB=     0.
 DE(Corr)= -0.28207155     E(CORR)=     -78.312662909     Delta=-4.48D-09
 NORM(A)=   0.10622257D+01
 Dominant configurations:
 ***********************
 Spin Case        I    J    A    B          Value
   ABAB           8    8    9    9      -0.148159D+00
 Largest amplitude= 1.48D-01

 Z-AMPLITUDE ITERATIONS

 Iteration Nr.   1
 **********************
 DD1Dir will call FoFMem   1 times, MxPair=        42
 NAB=    21 NAA=     0 NBB=     0.
 DE(Z)  -0.27430409D+00          E(Z)=    -0.78304895450D+02
 NORM(A)=   0.10622283D+01
 Iteration Nr.   2
 **********************
 DD1Dir will call FoFMem   1 times, MxPair=        42
 NAB=    21 NAA=     0 NBB=     0.
 DE(Z)  -0.27430487D+00          E(Z)=    -0.78304896233D+02
 NORM(A)=   0.10622103D+01
 Iteration Nr.   3
 **********************
 DD1Dir will call FoFMem   1 times, MxPair=        42
 NAB=    21 NAA=     0 NBB=     0.
 DE(Z)  -0.27429978D+00          E(Z)=    -0.78304891144D+02
 NORM(A)=   0.10622216D+01
 Iteration Nr.   4
 **********************
 DD1Dir will call FoFMem   1 times, MxPair=        42
 NAB=    21 NAA=     0 NBB=     0.
 DE(Z)  -0.27430294D+00          E(Z)=    -0.78304894301D+02
 NORM(A)=   0.10622212D+01
 Iteration Nr.   5
 **********************
 DD1Dir will call FoFMem   1 times, MxPair=        42
 NAB=    21 NAA=     0 NBB=     0.
 DE(Z)  -0.27430284D+00          E(Z)=    -0.78304894198D+02
 NORM(A)=   0.10575200D+01
 Iteration Nr.   6
 **********************
 DD1Dir will call FoFMem   1 times, MxPair=        42
 NAB=    21 NAA=     0 NBB=     0.
 DE(Z)  -0.27291909D+00          E(Z)=    -0.78303510453D+02
 NORM(A)=   0.10575190D+01
 Iteration Nr.   7
 **********************
 DD1Dir will call FoFMem   1 times, MxPair=        42
 NAB=    21 NAA=     0 NBB=     0.
 DE(Z)  -0.27291885D+00          E(Z)=    -0.78303510209D+02
 NORM(A)=   0.10575179D+01
 Iteration Nr.   8
 **********************
 DD1Dir will call FoFMem   1 times, MxPair=        42
 NAB=    21 NAA=     0 NBB=     0.
 DE(Z)  -0.27291865D+00          E(Z)=    -0.78303510012D+02
 NORM(A)=   0.10575179D+01
 Iteration Nr.   9
 **********************
 DD1Dir will call FoFMem   1 times, MxPair=        42
 NAB=    21 NAA=     0 NBB=     0.
 DE(Z)  -0.27291863D+00          E(Z)=    -0.78303509992D+02
 NORM(A)=   0.10575178D+01
 Iteration Nr.  10
 **********************
 DD1Dir will call FoFMem   1 times, MxPair=        42
 NAB=    21 NAA=     0 NBB=     0.
 DE(Z)  -0.27291862D+00          E(Z)=    -0.78303509987D+02
 NORM(A)=   0.10575178D+01
 Discarding MO integrals.
          IDoAtm=111111
          Differentiating once with respect to electric field.
                with respect to dipole field.
          Differentiating once with respect to nuclear coordinates.
 Keep R1 ints in memory in canonical form, NReq=1116621.
          There are     1 degrees of freedom in the 1st order CPHF.  IDoFFX=0 NUNeed=     1.
 LinEq1:  Iter=  0 NonCon=     1 RMS=6.68D-03 Max=7.88D-02 NDo=     1
 AX will form     1 AO Fock derivatives at one time.
 LinEq1:  Iter=  1 NonCon=     1 RMS=2.10D-03 Max=1.64D-02 NDo=     1
 LinEq1:  Iter=  2 NonCon=     1 RMS=2.98D-04 Max=2.63D-03 NDo=     1
 LinEq1:  Iter=  3 NonCon=     1 RMS=4.12D-05 Max=2.15D-04 NDo=     1
 LinEq1:  Iter=  4 NonCon=     1 RMS=3.68D-06 Max=2.42D-05 NDo=     1
 LinEq1:  Iter=  5 NonCon=     1 RMS=3.02D-07 Max=2.01D-06 NDo=     1
 LinEq1:  Iter=  6 NonCon=     1 RMS=2.17D-08 Max=1.57D-07 NDo=     1
 LinEq1:  Iter=  7 NonCon=     1 RMS=1.47D-09 Max=9.41D-09 NDo=     1
 LinEq1:  Iter=  8 NonCon=     0 RMS=7.69D-11 Max=4.41D-10 NDo=     1
 Linear equations converged to 1.000D-10 1.000D-09 after     8 iterations.
 End of Minotr F.D. properties file   721 does not exist.
 End of Minotr F.D. properties file   722 does not exist.
 End of Minotr F.D. properties file   788 does not exist.
 Calling FoFJK, ICntrl=  10002127 FMM=F ISym2X=0 I1Cent= 0 IOpClX= 0 NMat=1 NMatS=1 NMatT=0.
 ***** Axes restored to original set *****
 -------------------------------------------------------------------
 Center     Atomic                   Forces (Hartrees/Bohr)
 Number     Number              X              Y              Z
 -------------------------------------------------------------------
      1        6           0.003297431   -0.000290396    0.000000033
      2        6          -0.003297493    0.000290069   -0.000000052
      3        1          -0.000134843    0.000011894    0.000096667
      4        1          -0.000134692    0.000011978   -0.000096790
      5        1           0.000134724   -0.000011795    0.000096812
      6        1           0.000134874   -0.000011750   -0.000096670
 -------------------------------------------------------------------
 Cartesian Forces:  Max     0.003297493 RMS     0.001106186

 GradGradGradGradGradGradGradGradGradGradGradGradGradGradGradGradGradGrad
 Berny optimization.
 Using GEDIIS/GDIIS optimizer.
 FormGI is forming the generalized inverse of G from B-inverse, IUseBI=4.
 Internal  Forces:  Max     0.003039603 RMS     0.000791409
 Search for a local minimum.
 Step number   2 out of a maximum of   25
 All quantities printed in internal units (Hartrees-Bohrs-Radians)
 Mixed Optimization -- En-DIIS/RFO-DIIS
 Update second derivatives using D2CorX and points    1    2
 DE= -3.30D-04 DEPred=-3.74D-04 R= 8.84D-01
 TightC=F SS=  1.41D+00  RLast= 4.68D-02 DXNew= 5.0454D-01 1.4026D-01
 Trust test= 8.84D-01 RLast= 4.68D-02 DXMaxT set to 3.00D-01
 The second derivative matrix:
                          R1        R2        R3        R4        R5
           R1           0.71271
           R2           0.00106   0.35129
           R3           0.00106  -0.00002   0.35129
           R4           0.00107  -0.00002  -0.00002   0.35129
           R5           0.00106  -0.00002  -0.00002  -0.00002   0.35129
           A1          -0.00031  -0.00015  -0.00015  -0.00015  -0.00015
           A2          -0.00031  -0.00015  -0.00015  -0.00015  -0.00015
           A3           0.00062   0.00031   0.00031   0.00031   0.00031
           A4          -0.00031  -0.00015  -0.00015  -0.00015  -0.00015
           A5          -0.00031  -0.00015  -0.00015  -0.00015  -0.00015
           A6           0.00062   0.00031   0.00031   0.00031   0.00031
           D1           0.00000   0.00000   0.00000   0.00000   0.00000
           D2           0.00000   0.00000   0.00000   0.00000   0.00000
           D3           0.00000   0.00000   0.00000   0.00000   0.00000
           D4           0.00000   0.00000   0.00000   0.00000   0.00000
                          A1        A2        A3        A4        A5
           A1           0.15923
           A2          -0.00077   0.15923
           A3           0.00153   0.00153   0.15693
           A4          -0.00077  -0.00077   0.00153   0.15923
           A5          -0.00077  -0.00077   0.00153  -0.00077   0.15923
           A6           0.00153   0.00153  -0.00307   0.00153   0.00153
           D1           0.00000   0.00000   0.00000   0.00000   0.00000
           D2           0.00000   0.00000   0.00000   0.00000   0.00000
           D3           0.00000   0.00000   0.00000   0.00000   0.00000
           D4           0.00000   0.00000   0.00000   0.00000   0.00000
                          A6        D1        D2        D3        D4
           A6           0.15693
           D1           0.00000   0.03087
           D2           0.00000   0.00000   0.03087
           D3           0.00000   0.00000   0.00000   0.03087
           D4           0.00000   0.00000   0.00000   0.00000   0.03087
 ITU=  1  0
 Use linear search instead of GDIIS.
     Eigenvalues ---    0.03087   0.03087   0.03087   0.15079   0.16000
     Eigenvalues ---    0.16000   0.16000   0.35123   0.35131   0.35131
     Eigenvalues ---    0.35131   0.71272
 RFO step:  Lambda=-6.60299223D-06 EMin= 3.08730960D-02
 Quartic linear search produced a step of -0.09521.
 Iteration  1 RMS(Cart)=  0.00101365 RMS(Int)=  0.00000024
 Iteration  2 RMS(Cart)=  0.00000024 RMS(Int)=  0.00000000
 Variable       Old X    -DE/DX   Delta X   Delta X   Delta X     New X
                                 (Linear)    (Quad)   (Total)
    R1        2.53258  -0.00304  -0.00282  -0.00149  -0.00431   2.52827
    R2        2.05610  -0.00001  -0.00014   0.00012  -0.00002   2.05608
    R3        2.05610  -0.00001  -0.00014   0.00012  -0.00002   2.05608
    R4        2.05610  -0.00001  -0.00014   0.00012  -0.00002   2.05608
    R5        2.05610  -0.00001  -0.00014   0.00012  -0.00002   2.05608
    A1        2.12476   0.00011  -0.00099   0.00166   0.00067   2.12543
    A2        2.12477   0.00011  -0.00099   0.00166   0.00067   2.12543
    A3        2.03366  -0.00023   0.00198  -0.00332  -0.00134   2.03232
    A4        2.12476   0.00011  -0.00099   0.00166   0.00067   2.12543
    A5        2.12476   0.00011  -0.00099   0.00166   0.00067   2.12543
    A6        2.03366  -0.00023   0.00198  -0.00332  -0.00134   2.03232
    D1        0.00000   0.00000   0.00000   0.00000   0.00000   0.00000
    D2       -3.14159   0.00000   0.00000   0.00000   0.00000   3.14159
    D3        3.14159   0.00000   0.00000   0.00000   0.00000  -3.14159
    D4        0.00000   0.00000   0.00000   0.00000   0.00000   0.00000
         Item               Value     Threshold  Converged?
 Maximum Force            0.003040     0.000450     NO 
 RMS     Force            0.000791     0.000300     NO 
 Maximum Displacement     0.002145     0.001800     NO 
 RMS     Displacement     0.001014     0.001200     YES
 Predicted change in Energy=-6.978790D-06
 GradGradGradGradGradGradGradGradGradGradGradGradGradGradGradGradGradGrad

                          Input orientation:                          
 ---------------------------------------------------------------------
 Center     Atomic      Atomic             Coordinates (Angstroms)
 Number     Number       Type             X           Y           Z
 ---------------------------------------------------------------------
      1          6           0       -7.657350    3.041857    0.000001
      2          6           0       -6.324600    2.924536   -0.000001
      3          1           0       -8.228108    3.092474   -0.924926
      4          1           0       -8.228171    3.091734    0.924929
      5          1           0       -5.753779    2.874660   -0.924929
      6          1           0       -5.753842    2.873920    0.924926
 ---------------------------------------------------------------------
                    Distance matrix (angstroms):
                    1          2          3          4          5
     1  C    0.000000
     2  C    1.337903   0.000000
     3  H    1.088033   2.122977   0.000000
     4  H    1.088033   2.122977   1.849855   0.000000
     5  H    2.122977   1.088033   2.483898   3.097049   0.000000
     6  H    2.122977   1.088033   3.097049   2.483898   1.849855
                    6
     6  H    0.000000
 Stoichiometry    C2H4
 Framework group  C1[X(C2H4)]
 Deg. of freedom    12
 Full point group                 C1      NOp   1
 Largest Abelian subgroup         C1      NOp   1
 Largest concise Abelian subgroup C1      NOp   1
                         Standard orientation:                         
 ---------------------------------------------------------------------
 Center     Atomic      Atomic             Coordinates (Angstroms)
 Number     Number       Type             X           Y           Z
 ---------------------------------------------------------------------
      1          6           0       -0.668952    0.000000    0.000000
      2          6           0        0.668952    0.000000    0.000000
      3          1           0       -1.241949    0.924927    0.000000
      4          1           0       -1.241949   -0.924927    0.000001
      5          1           0        1.241949    0.924927    0.000001
      6          1           0        1.241949   -0.924927    0.000000
 ---------------------------------------------------------------------
 Rotational constants (GHZ):    146.5402059     29.8019084     24.7653705
 Standard basis: 6-31G(d) (6D, 7F)
 There are    38 symmetry adapted cartesian basis functions of A   symmetry.
 There are    38 symmetry adapted basis functions of A   symmetry.
    38 basis functions,    72 primitive gaussians,    38 cartesian basis functions
     8 alpha electrons        8 beta electrons
       nuclear repulsion energy        33.2338776186 Hartrees.
 NAtoms=    6 NActive=    6 NUniq=    6 SFac= 1.00D+00 NAtFMM=   60 NAOKFM=F Big=F
 Integral buffers will be    131072 words long.
 Raffenetti 1 integral format.
 Two-electron integral symmetry is turned on.
 One-electron integrals computed using PRISM.
 NBasis=    38 RedAO= T EigKep=  7.82D-03  NBF=    38
 NBsUse=    38 1.00D-06 EigRej= -1.00D+00 NBFU=    38
 Initial guess from the checkpoint file:  "/scr/Gau-27130.chk"
 B after Tr=     0.000000    0.000000    0.000000
         Rot=    1.000000    0.000000    0.000000    0.000000 Ang=   0.00 deg.
 Keep R1 ints in memory in canonical form, NReq=1133007.
 Requested convergence on RMS density matrix=1.00D-08 within 128 cycles.
 Requested convergence on MAX density matrix=1.00D-06.
 Requested convergence on             energy=1.00D-06.
 No special actions if energy rises.
 SCF Done:  E(RHF) =  -78.0307193347     A.U. after    7 cycles
            NFock=  7  Conv=0.94D-09     -V/T= 2.0024
 ExpMin= 1.61D-01 ExpMax= 3.05D+03 ExpMxC= 4.57D+02 IAcc=3 IRadAn=         5 AccDes= 0.00D+00
 HarFok:  IExCor=  205 AccDes= 0.00D+00 IRadAn=         5 IDoV=-2 UseB2=F ITyADJ=14
 ICtDFT= 12500011 ScaDFX=  1.000000  1.000000  1.000000  1.000000
 Range of M.O.s used for correlation:     3    38
 NBasis=    38 NAE=     8 NBE=     8 NFC=     2 NFV=     0
 NROrb=     36 NOA=     6 NOB=     6 NVA=    30 NVB=    30
 Semi-Direct transformation.
 ModeAB=           2 MOrb=             6 LenV=      33369307
 LASXX=       120045 LTotXX=      120045 LenRXX=      120045
 LTotAB=      130086 MaxLAS=      160056 LenRXY=      160056
 NonZer=      240090 LenScr=      785920 LnRSAI=           0
 LnScr1=           0 LExtra=           0 Total=      1066021
 MaxDsk=          -1 SrtSym=           F ITran=            4
 JobTyp=0 Pass  1:  I=   1 to   6.
 (rs|ai) integrals will be sorted in core.
 SymMOI:  orbitals are not symmetric.
 Spin components of T(2) and E(2):
     alpha-alpha T2 =       0.1008832095D-01 E2=     -0.2864467678D-01
     alpha-beta  T2 =       0.7204578772D-01 E2=     -0.1969916176D+00
     beta-beta   T2 =       0.1008832095D-01 E2=     -0.2864467678D-01
 ANorm=    0.1045094460D+01
 E2 =    -0.2542809711D+00 EUMP2 =    -0.78285000305779D+02
 Keep R2 and R3 ints in memory in canonical form, NReq=1371092.
 Iterations=  50 Convergence= 0.100D-07
 Iteration Nr.   1
 **********************
 DD1Dir will call FoFMem   1 times, MxPair=        42
 NAB=    21 NAA=     0 NBB=     0.
 MP4(R+Q)=  0.47763297D-02
 E3=       -0.20941311D-01        EUMP3=      -0.78305941617D+02
 E4(DQ)=   -0.27555393D-02        UMP4(DQ)=   -0.78308697156D+02
 E4(SDQ)=  -0.54719465D-02        UMP4(SDQ)=  -0.78311413563D+02
 DE(Corr)= -0.27025169     E(Corr)=     -78.300971023    
 NORM(A)=   0.10538857D+01
 Iteration Nr.   2
 **********************
 DD1Dir will call FoFMem   1 times, MxPair=        42
 NAB=    21 NAA=     0 NBB=     0.
 DE(Corr)= -0.27881251     E(CORR)=     -78.309531843     Delta=-8.56D-03
 NORM(A)=   0.10599311D+01
 Iteration Nr.   3
 **********************
 DD1Dir will call FoFMem   1 times, MxPair=        42
 NAB=    21 NAA=     0 NBB=     0.
 DE(Corr)= -0.28100891     E(CORR)=     -78.311728243     Delta=-2.20D-03
 NORM(A)=   0.10616207D+01
 Iteration Nr.   4
 **********************
 DD1Dir will call FoFMem   1 times, MxPair=        42
 NAB=    21 NAA=     0 NBB=     0.
 DE(Corr)= -0.28185501     E(CORR)=     -78.312574346     Delta=-8.46D-04
 NORM(A)=   0.10620683D+01
 Iteration Nr.   5
 **********************
 DD1Dir will call FoFMem   1 times, MxPair=        42
 NAB=    21 NAA=     0 NBB=     0.
 DE(Corr)= -0.28195015     E(CORR)=     -78.312669483     Delta=-9.51D-05
 NORM(A)=   0.10620980D+01
 Iteration Nr.   6
 **********************
 DD1Dir will call FoFMem   1 times, MxPair=        42
 NAB=    21 NAA=     0 NBB=     0.
 DE(Corr)= -0.28195196     E(CORR)=     -78.312671294     Delta=-1.81D-06
 NORM(A)=   0.10620983D+01
 Iteration Nr.   7
 **********************
 DD1Dir will call FoFMem   1 times, MxPair=        42
 NAB=    21 NAA=     0 NBB=     0.
 DE(Corr)= -0.28195154     E(CORR)=     -78.312670871     Delta= 4.23D-07
 NORM(A)=   0.10621002D+01
 Iteration Nr.   8
 **********************
 DD1Dir will call FoFMem   1 times, MxPair=        42
 NAB=    21 NAA=     0 NBB=     0.
 DE(Corr)= -0.28195161     E(CORR)=     -78.312670947     Delta=-7.57D-08
 NORM(A)=   0.10621000D+01
 Iteration Nr.   9
 **********************
 DD1Dir will call FoFMem   1 times, MxPair=        42
 NAB=    21 NAA=     0 NBB=     0.
 DE(Corr)= -0.28195170     E(CORR)=     -78.312671036     Delta=-8.92D-08
 NORM(A)=   0.10621001D+01
 Iteration Nr.  10
 **********************
 DD1Dir will call FoFMem   1 times, MxPair=        42
 NAB=    21 NAA=     0 NBB=     0.
 DE(Corr)= -0.28195171     E(CORR)=     -78.312671045     Delta=-9.09D-09
 NORM(A)=   0.10621001D+01
 Iteration Nr.  11
 **********************
 DD1Dir will call FoFMem   1 times, MxPair=        42
 NAB=    21 NAA=     0 NBB=     0.
 DE(Corr)= -0.28195172     E(CORR)=     -78.312671058     Delta=-1.30D-08
 NORM(A)=   0.10621001D+01
 Iteration Nr.  12
 **********************
 DD1Dir will call FoFMem   1 times, MxPair=        42
 NAB=    21 NAA=     0 NBB=     0.
 DE(Corr)= -0.28195173     E(CORR)=     -78.312671062     Delta=-4.48D-09
 NORM(A)=   0.10621001D+01
 Dominant configurations:
 ***********************
 Spin Case        I    J    A    B          Value
   ABAB           8    8    9    9      -0.147575D+00
 Largest amplitude= 1.48D-01

 Z-AMPLITUDE ITERATIONS

 Iteration Nr.   1
 **********************
 DD1Dir will call FoFMem   1 times, MxPair=        42
 NAB=    21 NAA=     0 NBB=     0.
 DE(Z)  -0.27421069D+00          E(Z)=    -0.78304930023D+02
 NORM(A)=   0.10621059D+01
 Iteration Nr.   2
 **********************
 DD1Dir will call FoFMem   1 times, MxPair=        42
 NAB=    21 NAA=     0 NBB=     0.
 DE(Z)  -0.27421244D+00          E(Z)=    -0.78304931777D+02
 NORM(A)=   0.10620954D+01
 Iteration Nr.   3
 **********************
 DD1Dir will call FoFMem   1 times, MxPair=        42
 NAB=    21 NAA=     0 NBB=     0.
 DE(Z)  -0.27420937D+00          E(Z)=    -0.78304928706D+02
 NORM(A)=   0.10620907D+01
 Iteration Nr.   4
 **********************
 DD1Dir will call FoFMem   1 times, MxPair=        42
 NAB=    21 NAA=     0 NBB=     0.
 DE(Z)  -0.27420804D+00          E(Z)=    -0.78304927379D+02
 NORM(A)=   0.10620576D+01
 Iteration Nr.   5
 **********************
 DD1Dir will call FoFMem   1 times, MxPair=        42
 NAB=    21 NAA=     0 NBB=     0.
 DE(Z)  -0.27419881D+00          E(Z)=    -0.78304918140D+02
 NORM(A)=   0.10574195D+01
 Iteration Nr.   6
 **********************
 DD1Dir will call FoFMem   1 times, MxPair=        42
 NAB=    21 NAA=     0 NBB=     0.
 DE(Z)  -0.27282930D+00          E(Z)=    -0.78303548631D+02
 NORM(A)=   0.10574184D+01
 Iteration Nr.   7
 **********************
 DD1Dir will call FoFMem   1 times, MxPair=        42
 NAB=    21 NAA=     0 NBB=     0.
 DE(Z)  -0.27282911D+00          E(Z)=    -0.78303548450D+02
 NORM(A)=   0.10574180D+01
 Iteration Nr.   8
 **********************
 DD1Dir will call FoFMem   1 times, MxPair=        42
 NAB=    21 NAA=     0 NBB=     0.
 DE(Z)  -0.27282906D+00          E(Z)=    -0.78303548391D+02
 NORM(A)=   0.10574179D+01
 Iteration Nr.   9
 **********************
 DD1Dir will call FoFMem   1 times, MxPair=        42
 NAB=    21 NAA=     0 NBB=     0.
 DE(Z)  -0.27282903D+00          E(Z)=    -0.78303548364D+02
 NORM(A)=   0.10574179D+01
 Iteration Nr.  10
 **********************
 DD1Dir will call FoFMem   1 times, MxPair=        42
 NAB=    21 NAA=     0 NBB=     0.
 DE(Z)  -0.27282902D+00          E(Z)=    -0.78303548359D+02
 NORM(A)=   0.10574179D+01
 Discarding MO integrals.
          IDoAtm=111111
          Differentiating once with respect to electric field.
                with respect to dipole field.
          Differentiating once with respect to nuclear coordinates.
 Keep R1 ints in memory in canonical form, NReq=1116621.
          There are     1 degrees of freedom in the 1st order CPHF.  IDoFFX=0 NUNeed=     1.
 LinEq1:  Iter=  0 NonCon=     1 RMS=6.66D-03 Max=7.84D-02 NDo=     1
 AX will form     1 AO Fock derivatives at one time.
 LinEq1:  Iter=  1 NonCon=     1 RMS=2.09D-03 Max=1.63D-02 NDo=     1
 LinEq1:  Iter=  2 NonCon=     1 RMS=2.98D-04 Max=2.63D-03 NDo=     1
 LinEq1:  Iter=  3 NonCon=     1 RMS=4.12D-05 Max=2.15D-04 NDo=     1
 LinEq1:  Iter=  4 NonCon=     1 RMS=3.68D-06 Max=2.41D-05 NDo=     1
 LinEq1:  Iter=  5 NonCon=     1 RMS=3.02D-07 Max=2.01D-06 NDo=     1
 LinEq1:  Iter=  6 NonCon=     1 RMS=2.17D-08 Max=1.57D-07 NDo=     1
 LinEq1:  Iter=  7 NonCon=     1 RMS=1.47D-09 Max=9.41D-09 NDo=     1
 LinEq1:  Iter=  8 NonCon=     0 RMS=7.70D-11 Max=4.44D-10 NDo=     1
 Linear equations converged to 1.000D-10 1.000D-09 after     8 iterations.
 End of Minotr F.D. properties file   721 does not exist.
 End of Minotr F.D. properties file   722 does not exist.
 End of Minotr F.D. properties file   788 does not exist.
 Calling FoFJK, ICntrl=  10002127 FMM=F ISym2X=0 I1Cent= 0 IOpClX= 0 NMat=1 NMatS=1 NMatT=0.
 ***** Axes restored to original set *****
 -------------------------------------------------------------------
 Center     Atomic                   Forces (Hartrees/Bohr)
 Number     Number              X              Y              Z
 -------------------------------------------------------------------
      1        6           0.000610276   -0.000053656   -0.000000006
      2        6          -0.000610278    0.000053811    0.000000006
      3        1          -0.000116653    0.000010224    0.000034973
      4        1          -0.000116642    0.000010242   -0.000034976
      5        1           0.000116644   -0.000010329    0.000034978
      6        1           0.000116653   -0.000010292   -0.000034976
 -------------------------------------------------------------------
 Cartesian Forces:  Max     0.000610278 RMS     0.000212184

 GradGradGradGradGradGradGradGradGradGradGradGradGradGradGradGradGradGrad
 Berny optimization.
 Using GEDIIS/GDIIS optimizer.
 FormGI is forming the generalized inverse of G from B-inverse, IUseBI=4.
 Internal  Forces:  Max     0.000378439 RMS     0.000122674
 Search for a local minimum.
 Step number   3 out of a maximum of   25
 All quantities printed in internal units (Hartrees-Bohrs-Radians)
 Mixed Optimization -- En-DIIS/RFO-DIIS
 Swapping is turned off.
 Update second derivatives using D2CorX and points    1    2    3
 DE= -8.15D-06 DEPred=-6.98D-06 R= 1.17D+00
 TightC=F SS=  1.41D+00  RLast= 4.89D-03 DXNew= 5.0454D-01 1.4676D-02
 Trust test= 1.17D+00 RLast= 4.89D-03 DXMaxT set to 3.00D-01
 The second derivative matrix:
                          R1        R2        R3        R4        R5
           R1           0.64385
           R2           0.00779   0.35139
           R3           0.00779   0.00009   0.35140
           R4           0.00780   0.00009   0.00009   0.35140
           R5           0.00779   0.00008   0.00008   0.00009   0.35139
           A1           0.01397  -0.00032  -0.00032  -0.00032  -0.00032
           A2           0.01397  -0.00032  -0.00032  -0.00032  -0.00032
           A3          -0.02795   0.00064   0.00063   0.00063   0.00064
           A4           0.01398  -0.00032  -0.00032  -0.00032  -0.00032
           A5           0.01397  -0.00032  -0.00032  -0.00032  -0.00032
           A6          -0.02795   0.00064   0.00063   0.00063   0.00064
           D1           0.00000   0.00000   0.00000   0.00000   0.00000
           D2           0.00002   0.00000   0.00000   0.00000   0.00000
           D3          -0.00002   0.00000   0.00000   0.00000   0.00000
           D4           0.00000   0.00000   0.00000   0.00000   0.00000
                          A1        A2        A3        A4        A5
           A1           0.15824
           A2          -0.00175   0.15825
           A3           0.00351   0.00351   0.15298
           A4          -0.00175  -0.00175   0.00351   0.15825
           A5          -0.00176  -0.00175   0.00351  -0.00175   0.15824
           A6           0.00351   0.00351  -0.00702   0.00351   0.00351
           D1           0.00000   0.00000   0.00000   0.00000   0.00000
           D2           0.00000   0.00000   0.00000   0.00000   0.00000
           D3           0.00000   0.00000   0.00000   0.00000   0.00000
           D4           0.00000   0.00000   0.00000   0.00000   0.00000
                          A6        D1        D2        D3        D4
           A6           0.15298
           D1           0.00000   0.03087
           D2           0.00000   0.00000   0.03087
           D3           0.00000   0.00000   0.00000   0.03087
           D4           0.00000   0.00000   0.00000   0.00000   0.03087
 ITU=  1  1  0
     Eigenvalues ---    0.03087   0.03087   0.03087   0.13428   0.16000
     Eigenvalues ---    0.16000   0.16000   0.35092   0.35131   0.35131
     Eigenvalues ---    0.35131   0.64923
 En-DIIS/RFO-DIIS IScMMF=        0 using points:     3    2
 RFO step:  Lambda=-4.31163213D-07.
 DidBck=F Rises=F RFO-DIIS coefs:    1.19414   -0.19414
 Iteration  1 RMS(Cart)=  0.00055252 RMS(Int)=  0.00000023
 Iteration  2 RMS(Cart)=  0.00000023 RMS(Int)=  0.00000000
 Variable       Old X    -DE/DX   Delta X   Delta X   Delta X     New X
                                 (Linear)    (Quad)   (Total)
    R1        2.52827  -0.00038  -0.00084   0.00007  -0.00077   2.52751
    R2        2.05608   0.00003   0.00000   0.00012   0.00011   2.05620
    R3        2.05608   0.00003   0.00000   0.00012   0.00011   2.05620
    R4        2.05608   0.00003   0.00000   0.00012   0.00011   2.05620
    R5        2.05608   0.00003   0.00000   0.00012   0.00011   2.05620
    A1        2.12543   0.00008   0.00013   0.00053   0.00066   2.12609
    A2        2.12543   0.00008   0.00013   0.00053   0.00066   2.12609
    A3        2.03232  -0.00016  -0.00026  -0.00106  -0.00132   2.03100
    A4        2.12543   0.00008   0.00013   0.00053   0.00066   2.12609
    A5        2.12543   0.00008   0.00013   0.00053   0.00066   2.12609
    A6        2.03232  -0.00016  -0.00026  -0.00106  -0.00132   2.03100
    D1        0.00000   0.00000   0.00000   0.00000   0.00000   0.00000
    D2        3.14159   0.00000   0.00000   0.00000   0.00000  -3.14159
    D3       -3.14159   0.00000   0.00000   0.00000   0.00000   3.14159
    D4        0.00000   0.00000   0.00000   0.00000   0.00000   0.00000
         Item               Value     Threshold  Converged?
 Maximum Force            0.000378     0.000450     YES
 RMS     Force            0.000123     0.000300     YES
 Maximum Displacement     0.000828     0.001800     YES
 RMS     Displacement     0.000553     0.001200     YES
 Predicted change in Energy=-4.722412D-07
 Optimization completed.
    -- Stationary point found.
                           ----------------------------
                           !   Optimized Parameters   !
                           ! (Angstroms and Degrees)  !
 --------------------------                            --------------------------
 ! Name  Definition              Value          Derivative Info.                !
 --------------------------------------------------------------------------------
 ! R1    R(1,2)                  1.3379         -DE/DX =   -0.0004              !
 ! R2    R(1,3)                  1.088          -DE/DX =    0.0                 !
 ! R3    R(1,4)                  1.088          -DE/DX =    0.0                 !
 ! R4    R(2,5)                  1.088          -DE/DX =    0.0                 !
 ! R5    R(2,6)                  1.088          -DE/DX =    0.0                 !
 ! A1    A(2,1,3)              121.7784         -DE/DX =    0.0001              !
 ! A2    A(2,1,4)              121.7784         -DE/DX =    0.0001              !
 ! A3    A(3,1,4)              116.4431         -DE/DX =   -0.0002              !
 ! A4    A(1,2,5)              121.7784         -DE/DX =    0.0001              !
 ! A5    A(1,2,6)              121.7784         -DE/DX =    0.0001              !
 ! A6    A(5,2,6)              116.4432         -DE/DX =   -0.0002              !
 ! D1    D(3,1,2,5)              0.0            -DE/DX =    0.0                 !
 ! D2    D(3,1,2,6)           -180.0001         -DE/DX =    0.0                 !
 ! D3    D(4,1,2,5)            180.0001         -DE/DX =    0.0                 !
 ! D4    D(4,1,2,6)              0.0            -DE/DX =    0.0                 !
 --------------------------------------------------------------------------------
 GradGradGradGradGradGradGradGradGradGradGradGradGradGradGradGradGradGrad

                          Input orientation:                          
 ---------------------------------------------------------------------
 Center     Atomic      Atomic             Coordinates (Angstroms)
 Number     Number       Type             X           Y           Z
 ---------------------------------------------------------------------
      1          6           0       -7.657350    3.041857    0.000001
      2          6           0       -6.324600    2.924536   -0.000001
      3          1           0       -8.228108    3.092474   -0.924926
      4          1           0       -8.228171    3.091734    0.924929
      5          1           0       -5.753779    2.874660   -0.924929
      6          1           0       -5.753842    2.873920    0.924926
 ---------------------------------------------------------------------
                    Distance matrix (angstroms):
                    1          2          3          4          5
     1  C    0.000000
     2  C    1.337903   0.000000
     3  H    1.088033   2.122977   0.000000
     4  H    1.088033   2.122977   1.849855   0.000000
     5  H    2.122977   1.088033   2.483898   3.097049   0.000000
     6  H    2.122977   1.088033   3.097049   2.483898   1.849855
                    6
     6  H    0.000000
 Stoichiometry    C2H4
 Framework group  C1[X(C2H4)]
 Deg. of freedom    12
 Full point group                 C1      NOp   1
 Largest Abelian subgroup         C1      NOp   1
 Largest concise Abelian subgroup C1      NOp   1
                         Standard orientation:                         
 ---------------------------------------------------------------------
 Center     Atomic      Atomic             Coordinates (Angstroms)
 Number     Number       Type             X           Y           Z
 ---------------------------------------------------------------------
      1          6           0       -0.668952    0.000000    0.000000
      2          6           0        0.668952    0.000000    0.000000
      3          1           0       -1.241949    0.924927    0.000000
      4          1           0       -1.241949   -0.924927    0.000001
      5          1           0        1.241949    0.924927    0.000001
      6          1           0        1.241949   -0.924927    0.000000
 ---------------------------------------------------------------------
 Rotational constants (GHZ):    146.5402059     29.8019084     24.7653705

 **********************************************************************

            Population analysis using the SCF density.

 **********************************************************************

 Orbital symmetries:
       Occupied  (A) (A) (A) (A) (A) (A) (A) (A)
       Virtual   (A) (A) (A) (A) (A) (A) (A) (A) (A) (A) (A) (A)
                 (A) (A) (A) (A) (A) (A) (A) (A) (A) (A) (A) (A)
                 (A) (A) (A) (A) (A) (A)
 The electronic state is 1-A.
 Alpha  occ. eigenvalues --  -11.23092 -11.22930  -1.02522  -0.78730  -0.63456
 Alpha  occ. eigenvalues --   -0.58156  -0.50174  -0.36984
 Alpha virt. eigenvalues --    0.17863   0.26400   0.29049   0.30573   0.39025
 Alpha virt. eigenvalues --    0.49068   0.66923   0.76621   0.77617   0.85294
 Alpha virt. eigenvalues --    0.88944   0.95060   1.10762   1.15403   1.19869
 Alpha virt. eigenvalues --    1.20787   1.33053   1.46914   1.73949   1.82281
 Alpha virt. eigenvalues --    2.12939   2.19667   2.31558   2.39776   2.61181
 Alpha virt. eigenvalues --    2.70864   3.04816   3.06271   4.51686   4.66871
          Condensed to atoms (all electrons):
               1          2          3          4          5          6
     1  C    5.003164   0.637864   0.395298   0.395298  -0.038798  -0.038798
     2  C    0.637864   5.003164  -0.038798  -0.038798   0.395298   0.395298
     3  H    0.395298  -0.038798   0.495329  -0.028363  -0.003280   0.002800
     4  H    0.395298  -0.038798  -0.028363   0.495329   0.002800  -0.003280
     5  H   -0.038798   0.395298  -0.003280   0.002800   0.495329  -0.028363
     6  H   -0.038798   0.395298   0.002800  -0.003280  -0.028363   0.495329
 Mulliken charges:
               1
     1  C   -0.354029
     2  C   -0.354029
     3  H    0.177014
     4  H    0.177014
     5  H    0.177014
     6  H    0.177014
 Sum of Mulliken charges =   0.00000
 Mulliken charges with hydrogens summed into heavy atoms:
               1
     1  C    0.000000
     2  C    0.000000
 Electronic spatial extent (au):  <R**2>=             82.9749
 Charge=              0.0000 electrons
 Dipole moment (field-independent basis, Debye):
    X=              0.0000    Y=              0.0000    Z=              0.0000  Tot=              0.0000
 Quadrupole moment (field-independent basis, Debye-Ang):
   XX=            -11.9710   YY=            -12.2598   ZZ=            -15.5092
   XY=              0.0000   XZ=              0.0000   YZ=              0.0000
 Traceless Quadrupole moment (field-independent basis, Debye-Ang):
   XX=              1.2757   YY=              0.9869   ZZ=             -2.2625
   XY=              0.0000   XZ=              0.0000   YZ=              0.0000
 Octapole moment (field-independent basis, Debye-Ang**2):
  XXX=              0.0000  YYY=              0.0000  ZZZ=              0.0000  XYY=              0.0000
  XXY=              0.0000  XXZ=              0.0000  XZZ=              0.0000  YZZ=              0.0000
  YYZ=              0.0000  XYZ=              0.0000
 Hexadecapole moment (field-independent basis, Debye-Ang**3):
 XXXX=            -66.9626 YYYY=            -26.0096 ZZZZ=            -16.6868 XXXY=              0.0000
 XXXZ=              0.0000 YYYX=              0.0000 YYYZ=              0.0000 ZZZX=              0.0000
 ZZZY=              0.0000 XXYY=            -12.9609 XXZZ=            -14.9705 YYZZ=             -7.7595
 XXYZ=              0.0000 YYXZ=              0.0000 ZZXY=              0.0000
 N-N= 3.323387761858D+01 E-N=-2.476513028040D+02  KE= 7.784296641414D+01
 1\1\GINC-N0286\FOpt\RCCSD-FC\6-31G(d)\C2H4\GDAVIDS3\21-Feb-2017\0\\#n 
 CCSD/6-31G(d) Opt\\Ethene CCSD 6-31Gd\\0,1\C,-7.6573498118,3.041856753
 1,0.0000006796\C,-6.324600232,2.9245357097,-0.0000006757\H,-8.22810799
 53,3.0924736022,-0.9249260511\H,-8.2281713562,3.0917335548,0.924928518
 4\H,-5.7537786362,2.8746603304,-0.9249285498\H,-5.7538419684,2.8739200
 499,0.9249260703\\Version=ES64L-G09RevE.01\State=1-A\HF=-78.0307193\MP
 2=-78.2850003\MP3=-78.3059416\MP4D=-78.3134735\MP4DQ=-78.3086972\MP4SD
 Q=-78.3114136\CCSD=-78.3126711\RMSD=9.403e-10\RMSF=2.122e-04\Dipole=0.
 ,0.0000007,0.\PG=C01 [X(C2H4)]\\@


 THE ... SCIENTISTS WERE WRONG ... THE MOST PERSISTENT PRINCIPLES 
 OF THE UNIVERSE WERE ACCIDENT AND ERROR.

                          -- FRANK HERBERT IN DUNE
 Job cpu time:       0 days  0 hours  2 minutes 30.0 seconds.
 File lengths (MBytes):  RWF=     31 Int=      0 D2E=      0 Chk=      1 Scr=      1
 Normal termination of Gaussian 09 at Tue Feb 21 17:54:47 2017.
