 Entering Gaussian System, Link 0=g09
 Input=Ethene_CCSD_3-21G.com
 Output=Ethene_CCSD_3-21G.log
 Initial command:
 /sw/contrib/gaussian/g09/E01/g09/l1.exe "/scr/Gau-932.inp" -scrdir="/scr/"
 Entering Link 1 = /sw/contrib/gaussian/g09/E01/g09/l1.exe PID=       933.
  
 Copyright (c) 1988,1990,1992,1993,1995,1998,2003,2009,2015,
            Gaussian, Inc.  All Rights Reserved.
  
 This is part of the Gaussian(R) 09 program.  It is based on
 the Gaussian(R) 03 system (copyright 2003, Gaussian, Inc.),
 the Gaussian(R) 98 system (copyright 1998, Gaussian, Inc.),
 the Gaussian(R) 94 system (copyright 1995, Gaussian, Inc.),
 the Gaussian 92(TM) system (copyright 1992, Gaussian, Inc.),
 the Gaussian 90(TM) system (copyright 1990, Gaussian, Inc.),
 the Gaussian 88(TM) system (copyright 1988, Gaussian, Inc.),
 the Gaussian 86(TM) system (copyright 1986, Carnegie Mellon
 University), and the Gaussian 82(TM) system (copyright 1983,
 Carnegie Mellon University). Gaussian is a federally registered
 trademark of Gaussian, Inc.
  
 This software contains proprietary and confidential information,
 including trade secrets, belonging to Gaussian, Inc.
  
 This software is provided under written license and may be
 used, copied, transmitted, or stored only in accord with that
 written license.
  
 The following legend is applicable only to US Government
 contracts under FAR:
  
                    RESTRICTED RIGHTS LEGEND
  
 Use, reproduction and disclosure by the US Government is
 subject to restrictions as set forth in subparagraphs (a)
 and (c) of the Commercial Computer Software - Restricted
 Rights clause in FAR 52.227-19.
  
 Gaussian, Inc.
 340 Quinnipiac St., Bldg. 40, Wallingford CT 06492
  
  
 ---------------------------------------------------------------
 Warning -- This program may not be used in any manner that
 competes with the business of Gaussian, Inc. or will provide
 assistance to any competitor of Gaussian, Inc.  The licensee
 of this program is prohibited from giving any competitor of
 Gaussian, Inc. access to this program.  By using this program,
 the user acknowledges that Gaussian, Inc. is engaged in the
 business of creating and licensing software in the field of
 computational chemistry and represents and warrants to the
 licensee that it is not a competitor of Gaussian, Inc. and that
 it will not use this program in any manner prohibited above.
 ---------------------------------------------------------------
  

 Cite this work as:
 Gaussian 09, Revision E.01,
 M. J. Frisch, G. W. Trucks, H. B. Schlegel, G. E. Scuseria, 
 M. A. Robb, J. R. Cheeseman, G. Scalmani, V. Barone, B. Mennucci, 
 G. A. Petersson, H. Nakatsuji, M. Caricato, X. Li, H. P. Hratchian, 
 A. F. Izmaylov, J. Bloino, G. Zheng, J. L. Sonnenberg, M. Hada, 
 M. Ehara, K. Toyota, R. Fukuda, J. Hasegawa, M. Ishida, T. Nakajima, 
 Y. Honda, O. Kitao, H. Nakai, T. Vreven, J. A. Montgomery, Jr., 
 J. E. Peralta, F. Ogliaro, M. Bearpark, J. J. Heyd, E. Brothers, 
 K. N. Kudin, V. N. Staroverov, T. Keith, R. Kobayashi, J. Normand, 
 K. Raghavachari, A. Rendell, J. C. Burant, S. S. Iyengar, J. Tomasi, 
 M. Cossi, N. Rega, J. M. Millam, M. Klene, J. E. Knox, J. B. Cross, 
 V. Bakken, C. Adamo, J. Jaramillo, R. Gomperts, R. E. Stratmann, 
 O. Yazyev, A. J. Austin, R. Cammi, C. Pomelli, J. W. Ochterski, 
 R. L. Martin, K. Morokuma, V. G. Zakrzewski, G. A. Voth, 
 P. Salvador, J. J. Dannenberg, S. Dapprich, A. D. Daniels, 
 O. Farkas, J. B. Foresman, J. V. Ortiz, J. Cioslowski, 
 and D. J. Fox, Gaussian, Inc., Wallingford CT, 2013.
 
 ******************************************
 Gaussian 09:  ES64L-G09RevE.01 30-Nov-2015
                21-Feb-2017 
 ******************************************
 %NProcShared=8
 Will use up to    8 processors via shared memory.
 -----------------
 #n CCSD/3-21G Opt
 -----------------
 1/18=20,19=15,38=1/1,3;
 2/9=110,12=2,17=6,18=5,40=1/2;
 3/5=5,11=9,16=1,25=1,30=1,71=1/1,2,3;
 4//1;
 5/5=2,38=5/2;
 8/6=4,9=120000,10=1/1,4;
 9/5=7,15=1/13;
 11/28=-8,29=200,42=3/11;
 10/5=6/2;
 6/7=2,8=2,9=2,10=2/1;
 7/12=7/1,2,3,16;
 1/18=20,19=15/3(2);
 2/9=110/2;
 99//99;
 2/9=110/2;
 3/5=5,11=9,16=1,25=1,30=1,71=1/1,2,3;
 4/5=5,16=3,69=1/1;
 5/5=2,38=5/2;
 8/6=4,9=120000,10=1/1,4;
 9/5=7,15=1/13;
 11/28=-8,29=200,42=3/11;
 10/5=6/2;
 7/12=7/1,2,3,16;
 1/18=20,19=15/3(-9);
 2/9=110/2;
 6/7=2,8=2,9=2,10=2/1;
 99//99;
 -----------------
 Ethene CCSD 3-21G
 -----------------
 Symbolic Z-matrix:
 Charge =  0 Multiplicity = 1
 C                    -7.65068   3.04127   0. 
 C                    -6.33127   2.92512   0. 
 H                    -8.2108    3.09095  -0.93056 
 H                    -8.21086   3.09021   0.93056 
 H                    -5.77109   2.87619  -0.93056 
 H                    -5.77115   2.87544   0.93056 
 

 GradGradGradGradGradGradGradGradGradGradGradGradGradGradGradGradGradGrad
 Berny optimization.
 Initialization pass.
                           ----------------------------
                           !    Initial Parameters    !
                           ! (Angstroms and Degrees)  !
 --------------------------                            --------------------------
 ! Name  Definition              Value          Derivative Info.                !
 --------------------------------------------------------------------------------
 ! R1    R(1,2)                  1.3245         estimate D2E/DX2                !
 ! R2    R(1,3)                  1.0873         estimate D2E/DX2                !
 ! R3    R(1,4)                  1.0873         estimate D2E/DX2                !
 ! R4    R(2,5)                  1.0873         estimate D2E/DX2                !
 ! R5    R(2,6)                  1.0873         estimate D2E/DX2                !
 ! A1    A(2,1,3)              121.1437         estimate D2E/DX2                !
 ! A2    A(2,1,4)              121.1435         estimate D2E/DX2                !
 ! A3    A(3,1,4)              117.7128         estimate D2E/DX2                !
 ! A4    A(1,2,5)              121.1435         estimate D2E/DX2                !
 ! A5    A(1,2,6)              121.1437         estimate D2E/DX2                !
 ! A6    A(5,2,6)              117.7128         estimate D2E/DX2                !
 ! D1    D(3,1,2,5)              0.0007         estimate D2E/DX2                !
 ! D2    D(3,1,2,6)            180.0            estimate D2E/DX2                !
 ! D3    D(4,1,2,5)           -179.9994         estimate D2E/DX2                !
 ! D4    D(4,1,2,6)             -0.0001         estimate D2E/DX2                !
 --------------------------------------------------------------------------------
 Trust Radius=3.00D-01 FncErr=1.00D-07 GrdErr=1.00D-07
 Number of steps in this run=     25 maximum allowed number of steps=    100.
 GradGradGradGradGradGradGradGradGradGradGradGradGradGradGradGradGradGrad

                          Input orientation:                          
 ---------------------------------------------------------------------
 Center     Atomic      Atomic             Coordinates (Angstroms)
 Number     Number       Type             X           Y           Z
 ---------------------------------------------------------------------
      1          6           0       -7.650680    3.041270    0.000000
      2          6           0       -6.331270    2.925120    0.000000
      3          1           0       -8.210800    3.090950   -0.930560
      4          1           0       -8.210860    3.090210    0.930560
      5          1           0       -5.771090    2.876190   -0.930560
      6          1           0       -5.771150    2.875440    0.930560
 ---------------------------------------------------------------------
                    Distance matrix (angstroms):
                    1          2          3          4          5
     1  C    0.000000
     2  C    1.324513   0.000000
     3  H    1.087265   2.103824   0.000000
     4  H    1.087262   2.103819   1.861120   0.000000
     5  H    2.103818   1.087262   2.449144   3.076045   0.000000
     6  H    2.103824   1.087265   3.076053   2.449145   1.861120
                    6
     6  H    0.000000
 Stoichiometry    C2H4
 Framework group  C1[X(C2H4)]
 Deg. of freedom    12
 Full point group                 C1      NOp   1
 Largest Abelian subgroup         C1      NOp   1
 Largest concise Abelian subgroup C1      NOp   1
                         Standard orientation:                         
 ---------------------------------------------------------------------
 Center     Atomic      Atomic             Coordinates (Angstroms)
 Number     Number       Type             X           Y           Z
 ---------------------------------------------------------------------
      1          6           0       -0.662256   -0.000001    0.000000
      2          6           0        0.662256    0.000001   -0.000002
      3          1           0       -1.224576    0.930558   -0.000002
      4          1           0       -1.224569   -0.930562    0.000003
      5          1           0        1.224568    0.930562    0.000006
      6          1           0        1.224576   -0.930558    0.000001
 ---------------------------------------------------------------------
 Rotational constants (GHZ):    144.7715521     30.4973425     25.1907084
 Standard basis: 3-21G (6D, 7F)
 There are    26 symmetry adapted cartesian basis functions of A   symmetry.
 There are    26 symmetry adapted basis functions of A   symmetry.
    26 basis functions,    42 primitive gaussians,    26 cartesian basis functions
     8 alpha electrons        8 beta electrons
       nuclear repulsion energy        33.4454879269 Hartrees.
 NAtoms=    6 NActive=    6 NUniq=    6 SFac= 1.00D+00 NAtFMM=   60 NAOKFM=F Big=F
 Integral buffers will be    131072 words long.
 Raffenetti 1 integral format.
 Two-electron integral symmetry is turned on.
 One-electron integrals computed using PRISM.
 NBasis=    26 RedAO= T EigKep=  1.56D-02  NBF=    26
 NBsUse=    26 1.00D-06 EigRej= -1.00D+00 NBFU=    26
 ExpMin= 1.83D-01 ExpMax= 1.72D+02 ExpMxC= 1.72D+02 IAcc=1 IRadAn=         1 AccDes= 0.00D+00
 Harris functional with IExCor=  205 and IRadAn=       1 diagonalized for initial guess.
 HarFok:  IExCor=  205 AccDes= 0.00D+00 IRadAn=         1 IDoV= 1 UseB2=F ITyADJ=14
 ICtDFT=  3500011 ScaDFX=  1.000000  1.000000  1.000000  1.000000
 FoFCou: FMM=F IPFlag=           0 FMFlag=      100000 FMFlg1=           0
         NFxFlg=           0 DoJE=T BraDBF=F KetDBF=T FulRan=T
         wScrn=  0.000000 ICntrl=     500 IOpCl=  0 I1Cent=   200000004 NGrid=           0
         NMat0=    1 NMatS0=      1 NMatT0=    0 NMatD0=    1 NMtDS0=    0 NMtDT0=    0
 Petite list used in FoFCou.
 Keep R1 ints in memory in canonical form, NReq=889329.
 Requested convergence on RMS density matrix=1.00D-08 within 128 cycles.
 Requested convergence on MAX density matrix=1.00D-06.
 Requested convergence on             energy=1.00D-06.
 No special actions if energy rises.
 SCF Done:  E(RHF) =  -77.6002110995     A.U. after    8 cycles
            NFock=  8  Conv=0.87D-08     -V/T= 2.0036
 ExpMin= 1.83D-01 ExpMax= 1.72D+02 ExpMxC= 1.72D+02 IAcc=3 IRadAn=         5 AccDes= 0.00D+00
 HarFok:  IExCor=  205 AccDes= 0.00D+00 IRadAn=         5 IDoV=-2 UseB2=F ITyADJ=14
 ICtDFT= 12500011 ScaDFX=  1.000000  1.000000  1.000000  1.000000
 Range of M.O.s used for correlation:     3    26
 NBasis=    26 NAE=     8 NBE=     8 NFC=     2 NFV=     0
 NROrb=     24 NOA=     6 NOB=     6 NVA=    18 NVB=    18
 Semi-Direct transformation.
 ModeAB=           2 MOrb=             6 LenV=      33437287
 LASXX=        32223 LTotXX=       32223 LenRXX=       32223
 LTotAB=       36432 MaxLAS=       50544 LenRXY=       50544
 NonZer=       64446 LenScr=      785920 LnRSAI=           0
 LnScr1=           0 LExtra=           0 Total=       868687
 MaxDsk=          -1 SrtSym=           F ITran=            4
 JobTyp=0 Pass  1:  I=   1 to   6.
 (rs|ai) integrals will be sorted in core.
 SymMOI:  orbitals are not symmetric.
 Spin components of T(2) and E(2):
     alpha-alpha T2 =       0.7060087065D-02 E2=     -0.1833098352D-01
     alpha-beta  T2 =       0.5859062543D-01 E2=     -0.1439406243D+00
     beta-beta   T2 =       0.7060087065D-02 E2=     -0.1833098352D-01
 ANorm=    0.1035717529D+01
 E2 =    -0.1806025914D+00 EUMP2 =    -0.77780813690850D+02
 Keep R2 and R3 ints in memory in canonical form, NReq=924796.
 Iterations=  50 Convergence= 0.100D-07
 Iteration Nr.   1
 **********************
 DD1Dir will call FoFMem   1 times, MxPair=        42
 NAB=    21 NAA=     0 NBB=     0.
 MP4(R+Q)=  0.16930085D-02
 E3=       -0.16902249D-01        EUMP3=      -0.77797715940D+02
 E4(DQ)=   -0.52444588D-02        UMP4(DQ)=   -0.77802960399D+02
 E4(SDQ)=  -0.68085262D-02        UMP4(SDQ)=  -0.77804524466D+02
 DE(Corr)= -0.19572572     E(Corr)=     -77.795936822    
 NORM(A)=   0.10453860D+01
 Iteration Nr.   2
 **********************
 DD1Dir will call FoFMem   1 times, MxPair=        42
 NAB=    21 NAA=     0 NBB=     0.
 DE(Corr)= -0.20330291     E(CORR)=     -77.803514005     Delta=-7.58D-03
 NORM(A)=   0.10523764D+01
 Iteration Nr.   3
 **********************
 DD1Dir will call FoFMem   1 times, MxPair=        42
 NAB=    21 NAA=     0 NBB=     0.
 DE(Corr)= -0.20625962     E(CORR)=     -77.806470723     Delta=-2.96D-03
 NORM(A)=   0.10543309D+01
 Iteration Nr.   4
 **********************
 DD1Dir will call FoFMem   1 times, MxPair=        42
 NAB=    21 NAA=     0 NBB=     0.
 DE(Corr)= -0.20714268     E(CORR)=     -77.807353783     Delta=-8.83D-04
 NORM(A)=   0.10547530D+01
 Iteration Nr.   5
 **********************
 DD1Dir will call FoFMem   1 times, MxPair=        42
 NAB=    21 NAA=     0 NBB=     0.
 DE(Corr)= -0.20723787     E(CORR)=     -77.807448967     Delta=-9.52D-05
 NORM(A)=   0.10547778D+01
 Iteration Nr.   6
 **********************
 DD1Dir will call FoFMem   1 times, MxPair=        42
 NAB=    21 NAA=     0 NBB=     0.
 DE(Corr)= -0.20723863     E(CORR)=     -77.807449725     Delta=-7.58D-07
 NORM(A)=   0.10547781D+01
 Iteration Nr.   7
 **********************
 DD1Dir will call FoFMem   1 times, MxPair=        42
 NAB=    21 NAA=     0 NBB=     0.
 DE(Corr)= -0.20723814     E(CORR)=     -77.807449237     Delta= 4.88D-07
 NORM(A)=   0.10547796D+01
 Iteration Nr.   8
 **********************
 DD1Dir will call FoFMem   1 times, MxPair=        42
 NAB=    21 NAA=     0 NBB=     0.
 DE(Corr)= -0.20723840     E(CORR)=     -77.807449499     Delta=-2.62D-07
 NORM(A)=   0.10547793D+01
 Iteration Nr.   9
 **********************
 DD1Dir will call FoFMem   1 times, MxPair=        42
 NAB=    21 NAA=     0 NBB=     0.
 DE(Corr)= -0.20723840     E(CORR)=     -77.807449503     Delta=-3.88D-09
 NORM(A)=   0.10547793D+01
 Iteration Nr.  10
 **********************
 DD1Dir will call FoFMem   1 times, MxPair=        42
 NAB=    21 NAA=     0 NBB=     0.
 DE(Corr)= -0.20723840     E(CORR)=     -77.807449503     Delta= 2.95D-10
 NORM(A)=   0.10547793D+01
 Iteration Nr.  11
 **********************
 DD1Dir will call FoFMem   1 times, MxPair=        42
 NAB=    21 NAA=     0 NBB=     0.
 DE(Corr)= -0.20723840     E(CORR)=     -77.807449501     Delta= 1.38D-09
 NORM(A)=   0.10547793D+01
 Dominant configurations:
 ***********************
 Spin Case        I    J    A    B          Value
   ABAB           8    8    9    9      -0.166095D+00
 Largest amplitude= 1.66D-01

 Z-AMPLITUDE ITERATIONS

 Iteration Nr.   1
 **********************
 DD1Dir will call FoFMem   1 times, MxPair=        42
 NAB=    21 NAA=     0 NBB=     0.
 DE(Z)  -0.20311347D+00          E(Z)=    -0.77803324574D+02
 NORM(A)=   0.10547796D+01
 Iteration Nr.   2
 **********************
 DD1Dir will call FoFMem   1 times, MxPair=        42
 NAB=    21 NAA=     0 NBB=     0.
 DE(Z)  -0.20311355D+00          E(Z)=    -0.77803324646D+02
 NORM(A)=   0.10547832D+01
 Iteration Nr.   3
 **********************
 DD1Dir will call FoFMem   1 times, MxPair=        42
 NAB=    21 NAA=     0 NBB=     0.
 DE(Z)  -0.20311455D+00          E(Z)=    -0.77803325649D+02
 NORM(A)=   0.10547823D+01
 Iteration Nr.   4
 **********************
 DD1Dir will call FoFMem   1 times, MxPair=        42
 NAB=    21 NAA=     0 NBB=     0.
 DE(Z)  -0.20311431D+00          E(Z)=    -0.77803325406D+02
 NORM(A)=   0.10547690D+01
 Iteration Nr.   5
 **********************
 DD1Dir will call FoFMem   1 times, MxPair=        42
 NAB=    21 NAA=     0 NBB=     0.
 DE(Z)  -0.20311062D+00          E(Z)=    -0.77803321719D+02
 NORM(A)=   0.10514255D+01
 Iteration Nr.   6
 **********************
 DD1Dir will call FoFMem   1 times, MxPair=        42
 NAB=    21 NAA=     0 NBB=     0.
 DE(Z)  -0.20214151D+00          E(Z)=    -0.77802352605D+02
 NORM(A)=   0.10514254D+01
 Iteration Nr.   7
 **********************
 DD1Dir will call FoFMem   1 times, MxPair=        42
 NAB=    21 NAA=     0 NBB=     0.
 DE(Z)  -0.20214145D+00          E(Z)=    -0.77802352551D+02
 NORM(A)=   0.10514242D+01
 Iteration Nr.   8
 **********************
 DD1Dir will call FoFMem   1 times, MxPair=        42
 NAB=    21 NAA=     0 NBB=     0.
 DE(Z)  -0.20214123D+00          E(Z)=    -0.77802352327D+02
 NORM(A)=   0.10514238D+01
 Iteration Nr.   9
 **********************
 DD1Dir will call FoFMem   1 times, MxPair=        42
 NAB=    21 NAA=     0 NBB=     0.
 DE(Z)  -0.20214112D+00          E(Z)=    -0.77802352224D+02
 NORM(A)=   0.10514238D+01
 Iteration Nr.  10
 **********************
 DD1Dir will call FoFMem   1 times, MxPair=        42
 NAB=    21 NAA=     0 NBB=     0.
 DE(Z)  -0.20214109D+00          E(Z)=    -0.77802352189D+02
 NORM(A)=   0.10514237D+01
 Iteration Nr.  11
 **********************
 DD1Dir will call FoFMem   1 times, MxPair=        42
 NAB=    21 NAA=     0 NBB=     0.
 DE(Z)  -0.20214107D+00          E(Z)=    -0.77802352173D+02
 NORM(A)=   0.10514237D+01
 Iteration Nr.  12
 **********************
 DD1Dir will call FoFMem   1 times, MxPair=        42
 NAB=    21 NAA=     0 NBB=     0.
 DE(Z)  -0.20214107D+00          E(Z)=    -0.77802352169D+02
 NORM(A)=   0.10514237D+01
 Discarding MO integrals.
          IDoAtm=111111
          Differentiating once with respect to electric field.
                with respect to dipole field.
          Differentiating once with respect to nuclear coordinates.
 Keep R1 ints in memory in canonical form, NReq=871298.
          There are     1 degrees of freedom in the 1st order CPHF.  IDoFFX=0 NUNeed=     1.
 LinEq1:  Iter=  0 NonCon=     1 RMS=6.80D-03 Max=7.09D-02 NDo=     1
 AX will form     1 AO Fock derivatives at one time.
 LinEq1:  Iter=  1 NonCon=     1 RMS=2.12D-03 Max=1.26D-02 NDo=     1
 LinEq1:  Iter=  2 NonCon=     1 RMS=2.04D-04 Max=1.59D-03 NDo=     1
 LinEq1:  Iter=  3 NonCon=     1 RMS=1.36D-05 Max=7.34D-05 NDo=     1
 LinEq1:  Iter=  4 NonCon=     1 RMS=7.90D-07 Max=5.23D-06 NDo=     1
 LinEq1:  Iter=  5 NonCon=     1 RMS=4.45D-08 Max=2.15D-07 NDo=     1
 LinEq1:  Iter=  6 NonCon=     1 RMS=3.00D-09 Max=1.69D-08 NDo=     1
 LinEq1:  Iter=  7 NonCon=     1 RMS=3.10D-10 Max=1.45D-09 NDo=     1
 LinEq1:  Iter=  8 NonCon=     0 RMS=5.69D-11 Max=4.66D-10 NDo=     1
 Linear equations converged to 1.000D-10 1.000D-09 after     8 iterations.
 End of Minotr F.D. properties file   721 does not exist.
 End of Minotr F.D. properties file   722 does not exist.
 End of Minotr F.D. properties file   788 does not exist.

 **********************************************************************

            Population analysis using the SCF density.

 **********************************************************************

 Orbital symmetries:
       Occupied  (A) (A) (A) (A) (A) (A) (A) (A)
       Virtual   (A) (A) (A) (A) (A) (A) (A) (A) (A) (A) (A) (A)
                 (A) (A) (A) (A) (A) (A)
 The electronic state is 1-A.
 Alpha  occ. eigenvalues --  -11.17061 -11.17050  -1.03430  -0.78227  -0.64411
 Alpha  occ. eigenvalues --   -0.58344  -0.49812  -0.37779
 Alpha virt. eigenvalues --    0.18439   0.29272   0.30948   0.33870   0.43621
 Alpha virt. eigenvalues --    0.53946   0.87438   0.93805   0.99114   1.07790
 Alpha virt. eigenvalues --    1.11104   1.12082   1.31434   1.34613   1.39350
 Alpha virt. eigenvalues --    1.65396   1.66055   1.97154
          Condensed to atoms (all electrons):
               1          2          3          4          5          6
     1  C    5.212303   0.523629   0.393288   0.393288  -0.049459  -0.049458
     2  C    0.523629   5.212303  -0.049458  -0.049458   0.393288   0.393288
     3  H    0.393288  -0.049458   0.464726  -0.020368  -0.002130   0.002145
     4  H    0.393288  -0.049458  -0.020368   0.464726   0.002146  -0.002130
     5  H   -0.049459   0.393288  -0.002130   0.002146   0.464726  -0.020367
     6  H   -0.049458   0.393288   0.002145  -0.002130  -0.020367   0.464725
 Mulliken charges:
               1
     1  C   -0.423592
     2  C   -0.423592
     3  H    0.211796
     4  H    0.211796
     5  H    0.211796
     6  H    0.211796
 Sum of Mulliken charges =   0.00000
 Mulliken charges with hydrogens summed into heavy atoms:
               1
     1  C    0.000000
     2  C    0.000000
 Electronic spatial extent (au):  <R**2>=             82.4746
 Charge=              0.0000 electrons
 Dipole moment (field-independent basis, Debye):
    X=              0.0000    Y=              0.0000    Z=              0.0000  Tot=              0.0000
 Quadrupole moment (field-independent basis, Debye-Ang):
   XX=            -12.2274   YY=            -12.2489   ZZ=            -15.7273
   XY=              0.0000   XZ=              0.0000   YZ=              0.0000
 Traceless Quadrupole moment (field-independent basis, Debye-Ang):
   XX=              1.1738   YY=              1.1523   ZZ=             -2.3261
   XY=              0.0000   XZ=              0.0000   YZ=              0.0000
 Octapole moment (field-independent basis, Debye-Ang**2):
  XXX=              0.0000  YYY=              0.0000  ZZZ=              0.0000  XYY=              0.0000
  XXY=              0.0000  XXZ=              0.0000  XZZ=              0.0000  YZZ=              0.0000
  YYZ=              0.0000  XYZ=              0.0000
 Hexadecapole moment (field-independent basis, Debye-Ang**3):
 XXXX=            -65.3435 YYYY=            -25.2067 ZZZZ=            -16.4760 XXXY=             -0.0001
 XXXZ=              0.0000 YYYX=              0.0000 YYYZ=              0.0000 ZZZX=              0.0000
 ZZZY=              0.0000 XXYY=            -12.3247 XXZZ=            -14.7767 YYZZ=             -7.6338
 XXYZ=              0.0000 YYXZ=              0.0000 ZZXY=              0.0000
 N-N= 3.344548792691D+01 E-N=-2.468884503383D+02  KE= 7.731933288293D+01
 Calling FoFJK, ICntrl=  10002127 FMM=F ISym2X=0 I1Cent= 0 IOpClX= 0 NMat=1 NMatS=1 NMatT=0.
 ***** Axes restored to original set *****
 -------------------------------------------------------------------
 Center     Atomic                   Forces (Hartrees/Bohr)
 Number     Number              X              Y              Z
 -------------------------------------------------------------------
      1        6          -0.017922776    0.001577499   -0.000000725
      2        6           0.017922580   -0.001576906    0.000000971
      3        1          -0.003693695    0.000325278    0.000211828
      4        1          -0.003695046    0.000325161   -0.000210400
      5        1           0.003695211   -0.000325869    0.000210178
      6        1           0.003693725   -0.000325163   -0.000211852
 -------------------------------------------------------------------
 Cartesian Forces:  Max     0.017922776 RMS     0.006247740

 GradGradGradGradGradGradGradGradGradGradGradGradGradGradGradGradGradGrad
 Berny optimization.
 FormGI is forming the generalized inverse of G from B-inverse, IUseBI=4.
 Internal  Forces:  Max     0.025409379 RMS     0.006920457
 Search for a local minimum.
 Step number   1 out of a maximum of   25
 All quantities printed in internal units (Hartrees-Bohrs-Radians)
 Mixed Optimization -- RFO/linear search
 Second derivative matrix not updated -- first step.
 The second derivative matrix:
                          R1        R2        R3        R4        R5
           R1           0.60821
           R2           0.00000   0.35131
           R3           0.00000   0.00000   0.35131
           R4           0.00000   0.00000   0.00000   0.35131
           R5           0.00000   0.00000   0.00000   0.00000   0.35131
           A1           0.00000   0.00000   0.00000   0.00000   0.00000
           A2           0.00000   0.00000   0.00000   0.00000   0.00000
           A3           0.00000   0.00000   0.00000   0.00000   0.00000
           A4           0.00000   0.00000   0.00000   0.00000   0.00000
           A5           0.00000   0.00000   0.00000   0.00000   0.00000
           A6           0.00000   0.00000   0.00000   0.00000   0.00000
           D1           0.00000   0.00000   0.00000   0.00000   0.00000
           D2           0.00000   0.00000   0.00000   0.00000   0.00000
           D3           0.00000   0.00000   0.00000   0.00000   0.00000
           D4           0.00000   0.00000   0.00000   0.00000   0.00000
                          A1        A2        A3        A4        A5
           A1           0.16000
           A2           0.00000   0.16000
           A3           0.00000   0.00000   0.16000
           A4           0.00000   0.00000   0.00000   0.16000
           A5           0.00000   0.00000   0.00000   0.00000   0.16000
           A6           0.00000   0.00000   0.00000   0.00000   0.00000
           D1           0.00000   0.00000   0.00000   0.00000   0.00000
           D2           0.00000   0.00000   0.00000   0.00000   0.00000
           D3           0.00000   0.00000   0.00000   0.00000   0.00000
           D4           0.00000   0.00000   0.00000   0.00000   0.00000
                          A6        D1        D2        D3        D4
           A6           0.16000
           D1           0.00000   0.03087
           D2           0.00000   0.00000   0.03087
           D3           0.00000   0.00000   0.00000   0.03087
           D4           0.00000   0.00000   0.00000   0.00000   0.03087
 ITU=  0
     Eigenvalues ---    0.03087   0.03087   0.03087   0.16000   0.16000
     Eigenvalues ---    0.16000   0.16000   0.35131   0.35131   0.35131
     Eigenvalues ---    0.35131   0.60821
 RFO step:  Lambda=-1.46900702D-03 EMin= 3.08730960D-02
 Linear search not attempted -- first point.
 Iteration  1 RMS(Cart)=  0.02643823 RMS(Int)=  0.00010710
 Iteration  2 RMS(Cart)=  0.00010889 RMS(Int)=  0.00000000
 Iteration  3 RMS(Cart)=  0.00000000 RMS(Int)=  0.00000000
 Variable       Old X    -DE/DX   Delta X   Delta X   Delta X     New X
                                 (Linear)    (Quad)   (Total)
    R1        2.50297   0.02541   0.00000   0.04168   0.04168   2.54464
    R2        2.05463   0.00174   0.00000   0.00492   0.00492   2.05955
    R3        2.05463   0.00174   0.00000   0.00493   0.00493   2.05955
    R4        2.05463   0.00174   0.00000   0.00493   0.00493   2.05955
    R5        2.05463   0.00174   0.00000   0.00492   0.00492   2.05955
    A1        2.11436   0.00225   0.00000   0.01392   0.01392   2.12828
    A2        2.11435   0.00225   0.00000   0.01393   0.01393   2.12828
    A3        2.05448  -0.00450   0.00000  -0.02785  -0.02785   2.02662
    A4        2.11435   0.00225   0.00000   0.01393   0.01393   2.12828
    A5        2.11436   0.00225   0.00000   0.01392   0.01392   2.12828
    A6        2.05448  -0.00450   0.00000  -0.02785  -0.02785   2.02662
    D1        0.00001   0.00000   0.00000  -0.00001  -0.00001   0.00000
    D2        3.14159   0.00000   0.00000   0.00000   0.00000  -3.14159
    D3       -3.14158   0.00000   0.00000  -0.00001  -0.00001   3.14159
    D4        0.00000   0.00000   0.00000   0.00000   0.00000   0.00000
         Item               Value     Threshold  Converged?
 Maximum Force            0.025409     0.000450     NO 
 RMS     Force            0.006920     0.000300     NO 
 Maximum Displacement     0.047649     0.001800     NO 
 RMS     Displacement     0.026439     0.001200     NO 
 Predicted change in Energy=-7.375600D-04
 GradGradGradGradGradGradGradGradGradGradGradGradGradGradGradGradGradGrad

                          Input orientation:                          
 ---------------------------------------------------------------------
 Center     Atomic      Atomic             Coordinates (Angstroms)
 Number     Number       Type             X           Y           Z
 ---------------------------------------------------------------------
      1          6           0       -7.661665    3.042238    0.000001
      2          6           0       -6.320285    2.924157   -0.000001
      3          1           0       -8.236011    3.093169   -0.924849
      4          1           0       -8.236075    3.092429    0.924852
      5          1           0       -5.745875    2.873964   -0.924852
      6          1           0       -5.745939    2.873224    0.924849
 ---------------------------------------------------------------------
                    Distance matrix (angstroms):
                    1          2          3          4          5
     1  C    0.000000
     2  C    1.346567   0.000000
     3  H    1.089869   2.133991   0.000000
     4  H    1.089870   2.133991   1.849701   0.000000
     5  H    2.133991   1.089870   2.499766   3.109699   0.000000
     6  H    2.133990   1.089869   3.109698   2.499766   1.849701
                    6
     6  H    0.000000
 Stoichiometry    C2H4
 Framework group  C1[X(C2H4)]
 Deg. of freedom    12
 Full point group                 C1      NOp   1
 Largest Abelian subgroup         C1      NOp   1
 Largest concise Abelian subgroup C1      NOp   1
                         Standard orientation:                         
 ---------------------------------------------------------------------
 Center     Atomic      Atomic             Coordinates (Angstroms)
 Number     Number       Type             X           Y           Z
 ---------------------------------------------------------------------
      1          6           0       -0.673283    0.000000    0.000000
      2          6           0        0.673284    0.000000    0.000000
      3          1           0       -1.249882    0.924851   -0.000001
      4          1           0       -1.249883   -0.924850   -0.000001
      5          1           0        1.249883    0.924850   -0.000001
      6          1           0        1.249882   -0.924851   -0.000001
 ---------------------------------------------------------------------
 Rotational constants (GHZ):    146.5645262     29.4215327     24.5028102
 Standard basis: 3-21G (6D, 7F)
 There are    26 symmetry adapted cartesian basis functions of A   symmetry.
 There are    26 symmetry adapted basis functions of A   symmetry.
    26 basis functions,    42 primitive gaussians,    26 cartesian basis functions
     8 alpha electrons        8 beta electrons
       nuclear repulsion energy        33.0876787160 Hartrees.
 NAtoms=    6 NActive=    6 NUniq=    6 SFac= 1.00D+00 NAtFMM=   60 NAOKFM=F Big=F
 Integral buffers will be    131072 words long.
 Raffenetti 1 integral format.
 Two-electron integral symmetry is turned on.
 One-electron integrals computed using PRISM.
 NBasis=    26 RedAO= T EigKep=  1.70D-02  NBF=    26
 NBsUse=    26 1.00D-06 EigRej= -1.00D+00 NBFU=    26
 Initial guess from the checkpoint file:  "/scr/Gau-933.chk"
 B after Tr=     0.000000    0.000000    0.000000
         Rot=    1.000000    0.000000    0.000000    0.000001 Ang=   0.00 deg.
 ExpMin= 1.83D-01 ExpMax= 1.72D+02 ExpMxC= 1.72D+02 IAcc=1 IRadAn=         1 AccDes= 0.00D+00
 Harris functional with IExCor=  205 and IRadAn=       1 diagonalized for initial guess.
 HarFok:  IExCor=  205 AccDes= 0.00D+00 IRadAn=         1 IDoV= 1 UseB2=F ITyADJ=14
 ICtDFT=  3500011 ScaDFX=  1.000000  1.000000  1.000000  1.000000
 FoFCou: FMM=F IPFlag=           0 FMFlag=      100000 FMFlg1=           0
         NFxFlg=           0 DoJE=T BraDBF=F KetDBF=T FulRan=T
         wScrn=  0.000000 ICntrl=     500 IOpCl=  0 I1Cent=   200000004 NGrid=           0
         NMat0=    1 NMatS0=      1 NMatT0=    0 NMatD0=    1 NMtDS0=    0 NMtDT0=    0
 Petite list used in FoFCou.
 Keep R1 ints in memory in canonical form, NReq=889329.
 Requested convergence on RMS density matrix=1.00D-08 within 128 cycles.
 Requested convergence on MAX density matrix=1.00D-06.
 Requested convergence on             energy=1.00D-06.
 No special actions if energy rises.
 SCF Done:  E(RHF) =  -77.5989488176     A.U. after    8 cycles
            NFock=  8  Conv=0.56D-09     -V/T= 2.0048
 ExpMin= 1.83D-01 ExpMax= 1.72D+02 ExpMxC= 1.72D+02 IAcc=3 IRadAn=         5 AccDes= 0.00D+00
 HarFok:  IExCor=  205 AccDes= 0.00D+00 IRadAn=         5 IDoV=-2 UseB2=F ITyADJ=14
 ICtDFT= 12500011 ScaDFX=  1.000000  1.000000  1.000000  1.000000
 Range of M.O.s used for correlation:     3    26
 NBasis=    26 NAE=     8 NBE=     8 NFC=     2 NFV=     0
 NROrb=     24 NOA=     6 NOB=     6 NVA=    18 NVB=    18
 Semi-Direct transformation.
 ModeAB=           2 MOrb=             6 LenV=      33437287
 LASXX=        32223 LTotXX=       32223 LenRXX=       32223
 LTotAB=       36432 MaxLAS=       50544 LenRXY=       50544
 NonZer=       64446 LenScr=      785920 LnRSAI=           0
 LnScr1=           0 LExtra=           0 Total=       868687
 MaxDsk=          -1 SrtSym=           F ITran=            4
 JobTyp=0 Pass  1:  I=   1 to   6.
 (rs|ai) integrals will be sorted in core.
 SymMOI:  orbitals are not symmetric.
 Spin components of T(2) and E(2):
     alpha-alpha T2 =       0.7210173311D-02 E2=     -0.1848946338D-01
     alpha-beta  T2 =       0.5997742361D-01 E2=     -0.1453000501D+00
     beta-beta   T2 =       0.7210173311D-02 E2=     -0.1848946338D-01
 ANorm=    0.1036531606D+01
 E2 =    -0.1822789768D+00 EUMP2 =    -0.77781227794443D+02
 Keep R2 and R3 ints in memory in canonical form, NReq=924796.
 Iterations=  50 Convergence= 0.100D-07
 Iteration Nr.   1
 **********************
 DD1Dir will call FoFMem   1 times, MxPair=        42
 NAB=    21 NAA=     0 NBB=     0.
 MP4(R+Q)=  0.17503628D-02
 E3=       -0.16817469D-01        EUMP3=      -0.77798045264D+02
 E4(DQ)=   -0.53732836D-02        UMP4(DQ)=   -0.77803418547D+02
 E4(SDQ)=  -0.70367969D-02        UMP4(SDQ)=  -0.77805082061D+02
 DE(Corr)= -0.19725152     E(Corr)=     -77.796200336    
 NORM(A)=   0.10463464D+01
 Iteration Nr.   2
 **********************
 DD1Dir will call FoFMem   1 times, MxPair=        42
 NAB=    21 NAA=     0 NBB=     0.
 DE(Corr)= -0.20504009     E(CORR)=     -77.803988910     Delta=-7.79D-03
 NORM(A)=   0.10537296D+01
 Iteration Nr.   3
 **********************
 DD1Dir will call FoFMem   1 times, MxPair=        42
 NAB=    21 NAA=     0 NBB=     0.
 DE(Corr)= -0.20809088     E(CORR)=     -77.807039693     Delta=-3.05D-03
 NORM(A)=   0.10558773D+01
 Iteration Nr.   4
 **********************
 DD1Dir will call FoFMem   1 times, MxPair=        42
 NAB=    21 NAA=     0 NBB=     0.
 DE(Corr)= -0.20904408     E(CORR)=     -77.807992896     Delta=-9.53D-04
 NORM(A)=   0.10563548D+01
 Iteration Nr.   5
 **********************
 DD1Dir will call FoFMem   1 times, MxPair=        42
 NAB=    21 NAA=     0 NBB=     0.
 DE(Corr)= -0.20914959     E(CORR)=     -77.808098409     Delta=-1.06D-04
 NORM(A)=   0.10563825D+01
 Iteration Nr.   6
 **********************
 DD1Dir will call FoFMem   1 times, MxPair=        42
 NAB=    21 NAA=     0 NBB=     0.
 DE(Corr)= -0.20915028     E(CORR)=     -77.808099097     Delta=-6.87D-07
 NORM(A)=   0.10563830D+01
 Iteration Nr.   7
 **********************
 DD1Dir will call FoFMem   1 times, MxPair=        42
 NAB=    21 NAA=     0 NBB=     0.
 DE(Corr)= -0.20914974     E(CORR)=     -77.808098554     Delta= 5.42D-07
 NORM(A)=   0.10563848D+01
 Iteration Nr.   8
 **********************
 DD1Dir will call FoFMem   1 times, MxPair=        42
 NAB=    21 NAA=     0 NBB=     0.
 DE(Corr)= -0.20915003     E(CORR)=     -77.808098844     Delta=-2.89D-07
 NORM(A)=   0.10563846D+01
 Iteration Nr.   9
 **********************
 DD1Dir will call FoFMem   1 times, MxPair=        42
 NAB=    21 NAA=     0 NBB=     0.
 DE(Corr)= -0.20915003     E(CORR)=     -77.808098846     Delta=-2.47D-09
 NORM(A)=   0.10563846D+01
 Iteration Nr.  10
 **********************
 DD1Dir will call FoFMem   1 times, MxPair=        42
 NAB=    21 NAA=     0 NBB=     0.
 DE(Corr)= -0.20915003     E(CORR)=     -77.808098846     Delta= 4.23D-11
 NORM(A)=   0.10563846D+01
 Iteration Nr.  11
 **********************
 DD1Dir will call FoFMem   1 times, MxPair=        42
 NAB=    21 NAA=     0 NBB=     0.
 DE(Corr)= -0.20915003     E(CORR)=     -77.808098845     Delta= 7.26D-10
 NORM(A)=   0.10563846D+01
 Dominant configurations:
 ***********************
 Spin Case        I    J    A    B          Value
   ABAB           8    8    9    9      -0.172372D+00
 Largest amplitude= 1.72D-01

 Z-AMPLITUDE ITERATIONS

 Iteration Nr.   1
 **********************
 DD1Dir will call FoFMem   1 times, MxPair=        42
 NAB=    21 NAA=     0 NBB=     0.
 DE(Z)  -0.20479717D+00          E(Z)=    -0.77803745983D+02
 NORM(A)=   0.10563849D+01
 Iteration Nr.   2
 **********************
 DD1Dir will call FoFMem   1 times, MxPair=        42
 NAB=    21 NAA=     0 NBB=     0.
 DE(Z)  -0.20479726D+00          E(Z)=    -0.77803746077D+02
 NORM(A)=   0.10562693D+01
 Iteration Nr.   3
 **********************
 DD1Dir will call FoFMem   1 times, MxPair=        42
 NAB=    21 NAA=     0 NBB=     0.
 DE(Z)  -0.20476583D+00          E(Z)=    -0.77803714649D+02
 NORM(A)=   0.10563891D+01
 Iteration Nr.   4
 **********************
 DD1Dir will call FoFMem   1 times, MxPair=        42
 NAB=    21 NAA=     0 NBB=     0.
 DE(Z)  -0.20479839D+00          E(Z)=    -0.77803747205D+02
 NORM(A)=   0.10563692D+01
 Iteration Nr.   5
 **********************
 DD1Dir will call FoFMem   1 times, MxPair=        42
 NAB=    21 NAA=     0 NBB=     0.
 DE(Z)  -0.20479303D+00          E(Z)=    -0.77803741843D+02
 NORM(A)=   0.10527648D+01
 Iteration Nr.   6
 **********************
 DD1Dir will call FoFMem   1 times, MxPair=        42
 NAB=    21 NAA=     0 NBB=     0.
 DE(Z)  -0.20377846D+00          E(Z)=    -0.77802727278D+02
 NORM(A)=   0.10527643D+01
 Iteration Nr.   7
 **********************
 DD1Dir will call FoFMem   1 times, MxPair=        42
 NAB=    21 NAA=     0 NBB=     0.
 DE(Z)  -0.20377850D+00          E(Z)=    -0.77802727320D+02
 NORM(A)=   0.10527641D+01
 Iteration Nr.   8
 **********************
 DD1Dir will call FoFMem   1 times, MxPair=        42
 NAB=    21 NAA=     0 NBB=     0.
 DE(Z)  -0.20377846D+00          E(Z)=    -0.77802727277D+02
 NORM(A)=   0.10527640D+01
 Iteration Nr.   9
 **********************
 DD1Dir will call FoFMem   1 times, MxPair=        42
 NAB=    21 NAA=     0 NBB=     0.
 DE(Z)  -0.20377844D+00          E(Z)=    -0.77802727258D+02
 NORM(A)=   0.10527640D+01
 Iteration Nr.  10
 **********************
 DD1Dir will call FoFMem   1 times, MxPair=        42
 NAB=    21 NAA=     0 NBB=     0.
 DE(Z)  -0.20377844D+00          E(Z)=    -0.77802727253D+02
 NORM(A)=   0.10527640D+01
 Discarding MO integrals.
          IDoAtm=111111
          Differentiating once with respect to electric field.
                with respect to dipole field.
          Differentiating once with respect to nuclear coordinates.
 Keep R1 ints in memory in canonical form, NReq=871298.
          There are     1 degrees of freedom in the 1st order CPHF.  IDoFFX=0 NUNeed=     1.
 LinEq1:  Iter=  0 NonCon=     1 RMS=6.99D-03 Max=7.32D-02 NDo=     1
 AX will form     1 AO Fock derivatives at one time.
 LinEq1:  Iter=  1 NonCon=     1 RMS=2.19D-03 Max=1.31D-02 NDo=     1
 LinEq1:  Iter=  2 NonCon=     1 RMS=2.05D-04 Max=1.60D-03 NDo=     1
 LinEq1:  Iter=  3 NonCon=     1 RMS=1.37D-05 Max=7.19D-05 NDo=     1
 LinEq1:  Iter=  4 NonCon=     1 RMS=7.88D-07 Max=5.07D-06 NDo=     1
 LinEq1:  Iter=  5 NonCon=     1 RMS=4.38D-08 Max=2.06D-07 NDo=     1
 LinEq1:  Iter=  6 NonCon=     1 RMS=2.49D-09 Max=1.41D-08 NDo=     1
 LinEq1:  Iter=  7 NonCon=     1 RMS=2.36D-10 Max=1.13D-09 NDo=     1
 LinEq1:  Iter=  8 NonCon=     0 RMS=1.70D-11 Max=9.55D-11 NDo=     1
 Linear equations converged to 1.000D-10 1.000D-09 after     8 iterations.
 End of Minotr F.D. properties file   721 does not exist.
 End of Minotr F.D. properties file   722 does not exist.
 End of Minotr F.D. properties file   788 does not exist.
 Calling FoFJK, ICntrl=  10002127 FMM=F ISym2X=0 I1Cent= 0 IOpClX= 0 NMat=1 NMatS=1 NMatT=0.
 ***** Axes restored to original set *****
 -------------------------------------------------------------------
 Center     Atomic                   Forces (Hartrees/Bohr)
 Number     Number              X              Y              Z
 -------------------------------------------------------------------
      1        6           0.003349097   -0.000294911   -0.000000067
      2        6          -0.003349162    0.000294584    0.000000055
      3        1           0.000031063   -0.000002705    0.000074159
      4        1           0.000031220   -0.000002650   -0.000074237
      5        1          -0.000031189    0.000002823    0.000074250
      6        1          -0.000031029    0.000002859   -0.000074161
 -------------------------------------------------------------------
 Cartesian Forces:  Max     0.003349162 RMS     0.001121334

 GradGradGradGradGradGradGradGradGradGradGradGradGradGradGradGradGradGrad
 Berny optimization.
 Using GEDIIS/GDIIS optimizer.
 FormGI is forming the generalized inverse of G from B-inverse, IUseBI=4.
 Internal  Forces:  Max     0.003424569 RMS     0.000885207
 Search for a local minimum.
 Step number   2 out of a maximum of   25
 All quantities printed in internal units (Hartrees-Bohrs-Radians)
 Mixed Optimization -- En-DIIS/RFO-DIIS
 Update second derivatives using D2CorX and points    1    2
 DE= -6.49D-04 DEPred=-7.38D-04 R= 8.80D-01
 TightC=F SS=  1.41D+00  RLast= 6.45D-02 DXNew= 5.0454D-01 1.9353D-01
 Trust test= 8.80D-01 RLast= 6.45D-02 DXMaxT set to 3.00D-01
 The second derivative matrix:
                          R1        R2        R3        R4        R5
           R1           0.68480
           R2           0.00252   0.35131
           R3           0.00252   0.00000   0.35131
           R4           0.00253   0.00000   0.00000   0.35131
           R5           0.00252   0.00000   0.00000   0.00000   0.35131
           A1           0.00146  -0.00011  -0.00011  -0.00011  -0.00011
           A2           0.00146  -0.00011  -0.00011  -0.00011  -0.00011
           A3          -0.00292   0.00022   0.00022   0.00022   0.00022
           A4           0.00146  -0.00011  -0.00011  -0.00011  -0.00011
           A5           0.00146  -0.00011  -0.00011  -0.00011  -0.00011
           A6          -0.00292   0.00022   0.00022   0.00022   0.00022
           D1           0.00000   0.00000   0.00000   0.00000   0.00000
           D2           0.00000   0.00000   0.00000   0.00000   0.00000
           D3           0.00000   0.00000   0.00000   0.00000   0.00000
           D4           0.00000   0.00000   0.00000   0.00000   0.00000
                          A1        A2        A3        A4        A5
           A1           0.15972
           A2          -0.00028   0.15972
           A3           0.00056   0.00056   0.15888
           A4          -0.00028  -0.00028   0.00056   0.15972
           A5          -0.00028  -0.00028   0.00056  -0.00028   0.15972
           A6           0.00056   0.00056  -0.00112   0.00056   0.00056
           D1           0.00000   0.00000   0.00000   0.00000   0.00000
           D2           0.00000   0.00000   0.00000   0.00000   0.00000
           D3           0.00000   0.00000   0.00000   0.00000   0.00000
           D4           0.00000   0.00000   0.00000   0.00000   0.00000
                          A6        D1        D2        D3        D4
           A6           0.15888
           D1           0.00000   0.03087
           D2           0.00000   0.00000   0.03087
           D3           0.00000   0.00000   0.00000   0.03087
           D4           0.00000   0.00000   0.00000   0.00000   0.03087
 ITU=  1  0
 Use linear search instead of GDIIS.
     Eigenvalues ---    0.03087   0.03087   0.03087   0.15657   0.16000
     Eigenvalues ---    0.16000   0.16000   0.35124   0.35131   0.35131
     Eigenvalues ---    0.35131   0.68492
 RFO step:  Lambda=-3.98235335D-06 EMin= 3.08730960D-02
 Quartic linear search produced a step of -0.09289.
 Iteration  1 RMS(Cart)=  0.00169477 RMS(Int)=  0.00000000
 Iteration  2 RMS(Cart)=  0.00000001 RMS(Int)=  0.00000000
 Variable       Old X    -DE/DX   Delta X   Delta X   Delta X     New X
                                 (Linear)    (Quad)   (Total)
    R1        2.54464  -0.00342  -0.00387  -0.00123  -0.00510   2.53955
    R2        2.05955  -0.00008  -0.00046   0.00024  -0.00021   2.05934
    R3        2.05955  -0.00008  -0.00046   0.00024  -0.00021   2.05934
    R4        2.05955  -0.00008  -0.00046   0.00024  -0.00021   2.05934
    R5        2.05955  -0.00008  -0.00046   0.00024  -0.00021   2.05934
    A1        2.12828   0.00001  -0.00129   0.00125  -0.00004   2.12824
    A2        2.12828   0.00001  -0.00129   0.00125  -0.00005   2.12824
    A3        2.02662  -0.00002   0.00259  -0.00250   0.00009   2.02671
    A4        2.12828   0.00001  -0.00129   0.00125  -0.00005   2.12824
    A5        2.12828   0.00001  -0.00129   0.00125  -0.00004   2.12824
    A6        2.02662  -0.00002   0.00259  -0.00250   0.00009   2.02671
    D1        0.00000   0.00000   0.00000   0.00000   0.00000   0.00000
    D2       -3.14159   0.00000   0.00000   0.00000   0.00000   3.14159
    D3        3.14159   0.00000   0.00000   0.00000   0.00001  -3.14159
    D4        0.00000   0.00000   0.00000   0.00000   0.00000   0.00000
         Item               Value     Threshold  Converged?
 Maximum Force            0.003425     0.000450     NO 
 RMS     Force            0.000885     0.000300     NO 
 Maximum Displacement     0.002730     0.001800     NO 
 RMS     Displacement     0.001695     0.001200     NO 
 Predicted change in Energy=-8.574074D-06
 GradGradGradGradGradGradGradGradGradGradGradGradGradGradGradGradGradGrad

                          Input orientation:                          
 ---------------------------------------------------------------------
 Center     Atomic      Atomic             Coordinates (Angstroms)
 Number     Number       Type             X           Y           Z
 ---------------------------------------------------------------------
      1          6           0       -7.660321    3.042118    0.000001
      2          6           0       -6.321629    2.924274   -0.000001
      3          1           0       -8.234567    3.093042   -0.924779
      4          1           0       -8.234630    3.092302    0.924782
      5          1           0       -5.747320    2.874092   -0.924782
      6          1           0       -5.747383    2.873352    0.924779
 ---------------------------------------------------------------------
                    Distance matrix (angstroms):
                    1          2          3          4          5
     1  C    0.000000
     2  C    1.343870   0.000000
     3  H    1.089757   2.131439   0.000000
     4  H    1.089757   2.131439   1.849561   0.000000
     5  H    2.131439   1.089757   2.496866   3.107285   0.000000
     6  H    2.131439   1.089757   3.107285   2.496866   1.849561
                    6
     6  H    0.000000
 Stoichiometry    C2H4
 Framework group  C1[X(C2H4)]
 Deg. of freedom    12
 Full point group                 C1      NOp   1
 Largest Abelian subgroup         C1      NOp   1
 Largest concise Abelian subgroup C1      NOp   1
                         Standard orientation:                         
 ---------------------------------------------------------------------
 Center     Atomic      Atomic             Coordinates (Angstroms)
 Number     Number       Type             X           Y           Z
 ---------------------------------------------------------------------
      1          6           0       -0.671935    0.000000    0.000000
      2          6           0        0.671935    0.000000    0.000000
      3          1           0       -1.248433    0.924781    0.000000
      4          1           0       -1.248433   -0.924781    0.000001
      5          1           0        1.248433    0.924781    0.000001
      6          1           0        1.248433   -0.924781    0.000001
 ---------------------------------------------------------------------
 Rotational constants (GHZ):    146.5866902     29.5214637     24.5727047
 Standard basis: 3-21G (6D, 7F)
 There are    26 symmetry adapted cartesian basis functions of A   symmetry.
 There are    26 symmetry adapted basis functions of A   symmetry.
    26 basis functions,    42 primitive gaussians,    26 cartesian basis functions
     8 alpha electrons        8 beta electrons
       nuclear repulsion energy        33.1252067390 Hartrees.
 NAtoms=    6 NActive=    6 NUniq=    6 SFac= 1.00D+00 NAtFMM=   60 NAOKFM=F Big=F
 Integral buffers will be    131072 words long.
 Raffenetti 1 integral format.
 Two-electron integral symmetry is turned on.
 One-electron integrals computed using PRISM.
 NBasis=    26 RedAO= T EigKep=  1.69D-02  NBF=    26
 NBsUse=    26 1.00D-06 EigRej= -1.00D+00 NBFU=    26
 Initial guess from the checkpoint file:  "/scr/Gau-933.chk"
 B after Tr=     0.000000    0.000000    0.000000
         Rot=    1.000000    0.000000    0.000000    0.000000 Ang=   0.00 deg.
 Keep R1 ints in memory in canonical form, NReq=889329.
 Requested convergence on RMS density matrix=1.00D-08 within 128 cycles.
 Requested convergence on MAX density matrix=1.00D-06.
 Requested convergence on             energy=1.00D-06.
 No special actions if energy rises.
 SCF Done:  E(RHF) =  -77.5991635253     A.U. after    7 cycles
            NFock=  7  Conv=0.18D-08     -V/T= 2.0047
 ExpMin= 1.83D-01 ExpMax= 1.72D+02 ExpMxC= 1.72D+02 IAcc=3 IRadAn=         5 AccDes= 0.00D+00
 HarFok:  IExCor=  205 AccDes= 0.00D+00 IRadAn=         5 IDoV=-2 UseB2=F ITyADJ=14
 ICtDFT= 12500011 ScaDFX=  1.000000  1.000000  1.000000  1.000000
 Range of M.O.s used for correlation:     3    26
 NBasis=    26 NAE=     8 NBE=     8 NFC=     2 NFV=     0
 NROrb=     24 NOA=     6 NOB=     6 NVA=    18 NVB=    18
 Semi-Direct transformation.
 ModeAB=           2 MOrb=             6 LenV=      33437287
 LASXX=        32223 LTotXX=       32223 LenRXX=       32223
 LTotAB=       36432 MaxLAS=       50544 LenRXY=       50544
 NonZer=       64446 LenScr=      785920 LnRSAI=           0
 LnScr1=           0 LExtra=           0 Total=       868687
 MaxDsk=          -1 SrtSym=           F ITran=            4
 JobTyp=0 Pass  1:  I=   1 to   6.
 (rs|ai) integrals will be sorted in core.
 SymMOI:  orbitals are not symmetric.
 Spin components of T(2) and E(2):
     alpha-alpha T2 =       0.7192971469D-02 E2=     -0.1847200396D-01
     alpha-beta  T2 =       0.5981811860D-01 E2=     -0.1451499921D+00
     beta-beta   T2 =       0.7192971469D-02 E2=     -0.1847200396D-01
 ANorm=    0.1036438161D+01
 E2 =    -0.1820940000D+00 EUMP2 =    -0.77781257525235D+02
 Keep R2 and R3 ints in memory in canonical form, NReq=924796.
 Iterations=  50 Convergence= 0.100D-07
 Iteration Nr.   1
 **********************
 DD1Dir will call FoFMem   1 times, MxPair=        42
 NAB=    21 NAA=     0 NBB=     0.
 MP4(R+Q)=  0.17439507D-02
 E3=       -0.16833696D-01        EUMP3=      -0.77798091221D+02
 E4(DQ)=   -0.53589221D-02        UMP4(DQ)=   -0.77803450143D+02
 E4(SDQ)=  -0.70105346D-02        UMP4(SDQ)=  -0.77805101756D+02
 DE(Corr)= -0.19709013     E(Corr)=     -77.796253654    
 NORM(A)=   0.10462402D+01
 Iteration Nr.   2
 **********************
 DD1Dir will call FoFMem   1 times, MxPair=        42
 NAB=    21 NAA=     0 NBB=     0.
 DE(Corr)= -0.20485487     E(CORR)=     -77.804018399     Delta=-7.76D-03
 NORM(A)=   0.10535778D+01
 Iteration Nr.   3
 **********************
 DD1Dir will call FoFMem   1 times, MxPair=        42
 NAB=    21 NAA=     0 NBB=     0.
 DE(Corr)= -0.20789534     E(CORR)=     -77.807058862     Delta=-3.04D-03
 NORM(A)=   0.10557021D+01
 Iteration Nr.   4
 **********************
 DD1Dir will call FoFMem   1 times, MxPair=        42
 NAB=    21 NAA=     0 NBB=     0.
 DE(Corr)= -0.20884022     E(CORR)=     -77.808003748     Delta=-9.45D-04
 NORM(A)=   0.10561728D+01
 Iteration Nr.   5
 **********************
 DD1Dir will call FoFMem   1 times, MxPair=        42
 NAB=    21 NAA=     0 NBB=     0.
 DE(Corr)= -0.20894451     E(CORR)=     -77.808108036     Delta=-1.04D-04
 NORM(A)=   0.10562002D+01
 Iteration Nr.   6
 **********************
 DD1Dir will call FoFMem   1 times, MxPair=        42
 NAB=    21 NAA=     0 NBB=     0.
 DE(Corr)= -0.20894523     E(CORR)=     -77.808108754     Delta=-7.18D-07
 NORM(A)=   0.10562006D+01
 Iteration Nr.   7
 **********************
 DD1Dir will call FoFMem   1 times, MxPair=        42
 NAB=    21 NAA=     0 NBB=     0.
 DE(Corr)= -0.20894469     E(CORR)=     -77.808108215     Delta= 5.39D-07
 NORM(A)=   0.10562024D+01
 Iteration Nr.   8
 **********************
 DD1Dir will call FoFMem   1 times, MxPair=        42
 NAB=    21 NAA=     0 NBB=     0.
 DE(Corr)= -0.20894498     E(CORR)=     -77.808108502     Delta=-2.87D-07
 NORM(A)=   0.10562021D+01
 Iteration Nr.   9
 **********************
 DD1Dir will call FoFMem   1 times, MxPair=        42
 NAB=    21 NAA=     0 NBB=     0.
 DE(Corr)= -0.20894498     E(CORR)=     -77.808108505     Delta=-2.79D-09
 NORM(A)=   0.10562022D+01
 Iteration Nr.  10
 **********************
 DD1Dir will call FoFMem   1 times, MxPair=        42
 NAB=    21 NAA=     0 NBB=     0.
 DE(Corr)= -0.20894498     E(CORR)=     -77.808108505     Delta=-5.94D-11
 NORM(A)=   0.10562022D+01
 Iteration Nr.  11
 **********************
 DD1Dir will call FoFMem   1 times, MxPair=        42
 NAB=    21 NAA=     0 NBB=     0.
 DE(Corr)= -0.20894498     E(CORR)=     -77.808108504     Delta= 7.43D-10
 NORM(A)=   0.10562022D+01
 Dominant configurations:
 ***********************
 Spin Case        I    J    A    B          Value
   ABAB           8    8    9    9      -0.171623D+00
 Largest amplitude= 1.72D-01

 Z-AMPLITUDE ITERATIONS

 Iteration Nr.   1
 **********************
 DD1Dir will call FoFMem   1 times, MxPair=        42
 NAB=    21 NAA=     0 NBB=     0.
 DE(Z)  -0.20461895D+00          E(Z)=    -0.77803782471D+02
 NORM(A)=   0.10562024D+01
 Iteration Nr.   2
 **********************
 DD1Dir will call FoFMem   1 times, MxPair=        42
 NAB=    21 NAA=     0 NBB=     0.
 DE(Z)  -0.20461903D+00          E(Z)=    -0.77803782551D+02
 NORM(A)=   0.10562115D+01
 Iteration Nr.   3
 **********************
 DD1Dir will call FoFMem   1 times, MxPair=        42
 NAB=    21 NAA=     0 NBB=     0.
 DE(Z)  -0.20462150D+00          E(Z)=    -0.77803785026D+02
 NORM(A)=   0.10562063D+01
 Iteration Nr.   4
 **********************
 DD1Dir will call FoFMem   1 times, MxPair=        42
 NAB=    21 NAA=     0 NBB=     0.
 DE(Z)  -0.20462006D+00          E(Z)=    -0.77803783590D+02
 NORM(A)=   0.10561743D+01
 Iteration Nr.   5
 **********************
 DD1Dir will call FoFMem   1 times, MxPair=        42
 NAB=    21 NAA=     0 NBB=     0.
 DE(Z)  -0.20461142D+00          E(Z)=    -0.77803774942D+02
 NORM(A)=   0.10526138D+01
 Iteration Nr.   6
 **********************
 DD1Dir will call FoFMem   1 times, MxPair=        42
 NAB=    21 NAA=     0 NBB=     0.
 DE(Z)  -0.20360517D+00          E(Z)=    -0.77802768694D+02
 NORM(A)=   0.10526132D+01
 Iteration Nr.   7
 **********************
 DD1Dir will call FoFMem   1 times, MxPair=        42
 NAB=    21 NAA=     0 NBB=     0.
 DE(Z)  -0.20360515D+00          E(Z)=    -0.77802768673D+02
 NORM(A)=   0.10526130D+01
 Iteration Nr.   8
 **********************
 DD1Dir will call FoFMem   1 times, MxPair=        42
 NAB=    21 NAA=     0 NBB=     0.
 DE(Z)  -0.20360511D+00          E(Z)=    -0.77802768636D+02
 NORM(A)=   0.10526129D+01
 Iteration Nr.   9
 **********************
 DD1Dir will call FoFMem   1 times, MxPair=        42
 NAB=    21 NAA=     0 NBB=     0.
 DE(Z)  -0.20360510D+00          E(Z)=    -0.77802768621D+02
 NORM(A)=   0.10526129D+01
 Iteration Nr.  10
 **********************
 DD1Dir will call FoFMem   1 times, MxPair=        42
 NAB=    21 NAA=     0 NBB=     0.
 DE(Z)  -0.20360509D+00          E(Z)=    -0.77802768617D+02
 NORM(A)=   0.10526129D+01
 Discarding MO integrals.
          IDoAtm=111111
          Differentiating once with respect to electric field.
                with respect to dipole field.
          Differentiating once with respect to nuclear coordinates.
 Keep R1 ints in memory in canonical form, NReq=871298.
          There are     1 degrees of freedom in the 1st order CPHF.  IDoFFX=0 NUNeed=     1.
 LinEq1:  Iter=  0 NonCon=     1 RMS=6.97D-03 Max=7.30D-02 NDo=     1
 AX will form     1 AO Fock derivatives at one time.
 LinEq1:  Iter=  1 NonCon=     1 RMS=2.18D-03 Max=1.31D-02 NDo=     1
 LinEq1:  Iter=  2 NonCon=     1 RMS=2.05D-04 Max=1.60D-03 NDo=     1
 LinEq1:  Iter=  3 NonCon=     1 RMS=1.37D-05 Max=7.16D-05 NDo=     1
 LinEq1:  Iter=  4 NonCon=     1 RMS=7.86D-07 Max=5.08D-06 NDo=     1
 LinEq1:  Iter=  5 NonCon=     1 RMS=4.39D-08 Max=2.07D-07 NDo=     1
 LinEq1:  Iter=  6 NonCon=     1 RMS=2.52D-09 Max=1.43D-08 NDo=     1
 LinEq1:  Iter=  7 NonCon=     1 RMS=2.41D-10 Max=1.16D-09 NDo=     1
 LinEq1:  Iter=  8 NonCon=     0 RMS=1.69D-11 Max=9.58D-11 NDo=     1
 Linear equations converged to 1.000D-10 1.000D-09 after     8 iterations.
 End of Minotr F.D. properties file   721 does not exist.
 End of Minotr F.D. properties file   722 does not exist.
 End of Minotr F.D. properties file   788 does not exist.
 Calling FoFJK, ICntrl=  10002127 FMM=F ISym2X=0 I1Cent= 0 IOpClX= 0 NMat=1 NMatS=1 NMatT=0.
 ***** Axes restored to original set *****
 -------------------------------------------------------------------
 Center     Atomic                   Forces (Hartrees/Bohr)
 Number     Number              X              Y              Z
 -------------------------------------------------------------------
      1        6           0.000573530   -0.000050428   -0.000000007
      2        6          -0.000573527    0.000050604    0.000000008
      3        1          -0.000109030    0.000009556    0.000036744
      4        1          -0.000109034    0.000009567   -0.000036735
      5        1           0.000109032   -0.000009674    0.000036738
      6        1           0.000109029   -0.000009625   -0.000036747
 -------------------------------------------------------------------
 Cartesian Forces:  Max     0.000573530 RMS     0.000199485

 GradGradGradGradGradGradGradGradGradGradGradGradGradGradGradGradGradGrad
 Berny optimization.
 Using GEDIIS/GDIIS optimizer.
 FormGI is forming the generalized inverse of G from B-inverse, IUseBI=4.
 Internal  Forces:  Max     0.000356842 RMS     0.000115911
 Search for a local minimum.
 Step number   3 out of a maximum of   25
 All quantities printed in internal units (Hartrees-Bohrs-Radians)
 Mixed Optimization -- En-DIIS/RFO-DIIS
 Swapping is turned off.
 Update second derivatives using D2CorX and points    1    2    3
 DE= -9.66D-06 DEPred=-8.57D-06 R= 1.13D+00
 TightC=F SS=  1.41D+00  RLast= 5.12D-03 DXNew= 5.0454D-01 1.5353D-02
 Trust test= 1.13D+00 RLast= 5.12D-03 DXMaxT set to 3.00D-01
 The second derivative matrix:
                          R1        R2        R3        R4        R5
           R1           0.59953
           R2           0.00609   0.35154
           R3           0.00610   0.00024   0.35155
           R4           0.00610   0.00024   0.00024   0.35155
           R5           0.00609   0.00024   0.00024   0.00024   0.35154
           A1           0.01199   0.00018   0.00018   0.00018   0.00018
           A2           0.01200   0.00018   0.00018   0.00018   0.00018
           A3          -0.02399  -0.00036  -0.00036  -0.00036  -0.00036
           A4           0.01200   0.00018   0.00018   0.00018   0.00018
           A5           0.01200   0.00018   0.00018   0.00018   0.00018
           A6          -0.02399  -0.00036  -0.00036  -0.00036  -0.00036
           D1           0.00000   0.00000   0.00000   0.00000   0.00000
           D2           0.00002   0.00000   0.00000   0.00000   0.00000
           D3          -0.00002   0.00000   0.00000   0.00000   0.00000
           D4           0.00000   0.00000   0.00000   0.00000   0.00000
                          A1        A2        A3        A4        A5
           A1           0.15981
           A2          -0.00019   0.15981
           A3           0.00037   0.00037   0.15925
           A4          -0.00019  -0.00019   0.00037   0.15981
           A5          -0.00019  -0.00019   0.00037  -0.00019   0.15981
           A6           0.00037   0.00037  -0.00075   0.00037   0.00037
           D1           0.00000   0.00000   0.00000   0.00000   0.00000
           D2           0.00000   0.00000   0.00000   0.00000   0.00000
           D3           0.00000   0.00000   0.00000   0.00000   0.00000
           D4           0.00000   0.00000   0.00000   0.00000   0.00000
                          A6        D1        D2        D3        D4
           A6           0.15925
           D1           0.00000   0.03087
           D2           0.00000   0.00000   0.03087
           D3           0.00000   0.00000   0.00000   0.03087
           D4           0.00000   0.00000   0.00000   0.00000   0.03087
 ITU=  1  1  0
     Eigenvalues ---    0.03087   0.03087   0.03087   0.15388   0.16000
     Eigenvalues ---    0.16000   0.16000   0.35131   0.35131   0.35131
     Eigenvalues ---    0.35166   0.60400
 En-DIIS/RFO-DIIS IScMMF=        0 using points:     3    2
 RFO step:  Lambda=-3.74137275D-07.
 DidBck=F Rises=F RFO-DIIS coefs:    1.11131   -0.11131
 Iteration  1 RMS(Cart)=  0.00044270 RMS(Int)=  0.00000016
 Iteration  2 RMS(Cart)=  0.00000016 RMS(Int)=  0.00000001
 Variable       Old X    -DE/DX   Delta X   Delta X   Delta X     New X
                                 (Linear)    (Quad)   (Total)
    R1        2.53955  -0.00036  -0.00057  -0.00016  -0.00073   2.53882
    R2        2.05934   0.00003  -0.00002   0.00011   0.00009   2.05943
    R3        2.05934   0.00003  -0.00002   0.00011   0.00009   2.05943
    R4        2.05934   0.00003  -0.00002   0.00011   0.00009   2.05943
    R5        2.05934   0.00003  -0.00002   0.00011   0.00009   2.05943
    A1        2.12824   0.00008   0.00000   0.00055   0.00054   2.12878
    A2        2.12824   0.00008  -0.00001   0.00055   0.00054   2.12878
    A3        2.02671  -0.00015   0.00001  -0.00110  -0.00109   2.02562
    A4        2.12824   0.00008  -0.00001   0.00055   0.00054   2.12878
    A5        2.12824   0.00008   0.00000   0.00055   0.00054   2.12878
    A6        2.02671  -0.00015   0.00001  -0.00110  -0.00109   2.02562
    D1        0.00000   0.00000   0.00000   0.00000   0.00000   0.00000
    D2        3.14159   0.00000   0.00000   0.00000   0.00000  -3.14159
    D3       -3.14159   0.00000   0.00000   0.00000   0.00000   3.14159
    D4        0.00000   0.00000   0.00000   0.00000   0.00000   0.00000
         Item               Value     Threshold  Converged?
 Maximum Force            0.000357     0.000450     YES
 RMS     Force            0.000116     0.000300     YES
 Maximum Displacement     0.000628     0.001800     YES
 RMS     Displacement     0.000443     0.001200     YES
 Predicted change in Energy=-3.862278D-07
 Optimization completed.
    -- Stationary point found.
                           ----------------------------
                           !   Optimized Parameters   !
                           ! (Angstroms and Degrees)  !
 --------------------------                            --------------------------
 ! Name  Definition              Value          Derivative Info.                !
 --------------------------------------------------------------------------------
 ! R1    R(1,2)                  1.3439         -DE/DX =   -0.0004              !
 ! R2    R(1,3)                  1.0898         -DE/DX =    0.0                 !
 ! R3    R(1,4)                  1.0898         -DE/DX =    0.0                 !
 ! R4    R(2,5)                  1.0898         -DE/DX =    0.0                 !
 ! R5    R(2,6)                  1.0898         -DE/DX =    0.0                 !
 ! A1    A(2,1,3)              121.939          -DE/DX =    0.0001              !
 ! A2    A(2,1,4)              121.939          -DE/DX =    0.0001              !
 ! A3    A(3,1,4)              116.1221         -DE/DX =   -0.0002              !
 ! A4    A(1,2,5)              121.939          -DE/DX =    0.0001              !
 ! A5    A(1,2,6)              121.939          -DE/DX =    0.0001              !
 ! A6    A(5,2,6)              116.1221         -DE/DX =   -0.0002              !
 ! D1    D(3,1,2,5)              0.0            -DE/DX =    0.0                 !
 ! D2    D(3,1,2,6)           -180.0001         -DE/DX =    0.0                 !
 ! D3    D(4,1,2,5)            180.0001         -DE/DX =    0.0                 !
 ! D4    D(4,1,2,6)              0.0            -DE/DX =    0.0                 !
 --------------------------------------------------------------------------------
 GradGradGradGradGradGradGradGradGradGradGradGradGradGradGradGradGradGrad

                          Input orientation:                          
 ---------------------------------------------------------------------
 Center     Atomic      Atomic             Coordinates (Angstroms)
 Number     Number       Type             X           Y           Z
 ---------------------------------------------------------------------
      1          6           0       -7.660321    3.042118    0.000001
      2          6           0       -6.321629    2.924274   -0.000001
      3          1           0       -8.234567    3.093042   -0.924779
      4          1           0       -8.234630    3.092302    0.924782
      5          1           0       -5.747320    2.874092   -0.924782
      6          1           0       -5.747383    2.873352    0.924779
 ---------------------------------------------------------------------
                    Distance matrix (angstroms):
                    1          2          3          4          5
     1  C    0.000000
     2  C    1.343870   0.000000
     3  H    1.089757   2.131439   0.000000
     4  H    1.089757   2.131439   1.849561   0.000000
     5  H    2.131439   1.089757   2.496866   3.107285   0.000000
     6  H    2.131439   1.089757   3.107285   2.496866   1.849561
                    6
     6  H    0.000000
 Stoichiometry    C2H4
 Framework group  C1[X(C2H4)]
 Deg. of freedom    12
 Full point group                 C1      NOp   1
 Largest Abelian subgroup         C1      NOp   1
 Largest concise Abelian subgroup C1      NOp   1
                         Standard orientation:                         
 ---------------------------------------------------------------------
 Center     Atomic      Atomic             Coordinates (Angstroms)
 Number     Number       Type             X           Y           Z
 ---------------------------------------------------------------------
      1          6           0       -0.671935    0.000000    0.000000
      2          6           0        0.671935    0.000000    0.000000
      3          1           0       -1.248433    0.924781    0.000000
      4          1           0       -1.248433   -0.924781    0.000001
      5          1           0        1.248433    0.924781    0.000001
      6          1           0        1.248433   -0.924781    0.000001
 ---------------------------------------------------------------------
 Rotational constants (GHZ):    146.5866902     29.5214637     24.5727047

 **********************************************************************

            Population analysis using the SCF density.

 **********************************************************************

 Orbital symmetries:
       Occupied  (A) (A) (A) (A) (A) (A) (A) (A)
       Virtual   (A) (A) (A) (A) (A) (A) (A) (A) (A) (A) (A) (A)
                 (A) (A) (A) (A) (A) (A)
 The electronic state is 1-A.
 Alpha  occ. eigenvalues --  -11.17501 -11.17496  -1.02694  -0.78599  -0.63780
 Alpha  occ. eigenvalues --   -0.58398  -0.49839  -0.37355
 Alpha virt. eigenvalues --    0.17908   0.29445   0.30848   0.33452   0.43423
 Alpha virt. eigenvalues --    0.53530   0.89059   0.92697   0.99361   1.07426
 Alpha virt. eigenvalues --    1.09354   1.12488   1.30804   1.34845   1.38662
 Alpha virt. eigenvalues --    1.62868   1.65486   1.95555
          Condensed to atoms (all electrons):
               1          2          3          4          5          6
     1  C    5.204500   0.530500   0.390458   0.390458  -0.046187  -0.046187
     2  C    0.530500   5.204500  -0.046187  -0.046187   0.390458   0.390458
     3  H    0.390458  -0.046187   0.466340  -0.022430  -0.001902   0.001950
     4  H    0.390458  -0.046187  -0.022430   0.466340   0.001950  -0.001902
     5  H   -0.046187   0.390458  -0.001902   0.001950   0.466340  -0.022430
     6  H   -0.046187   0.390458   0.001950  -0.001902  -0.022430   0.466340
 Mulliken charges:
               1
     1  C   -0.423542
     2  C   -0.423542
     3  H    0.211771
     4  H    0.211771
     5  H    0.211771
     6  H    0.211771
 Sum of Mulliken charges =   0.00000
 Mulliken charges with hydrogens summed into heavy atoms:
               1
     1  C    0.000000
     2  C    0.000000
 Electronic spatial extent (au):  <R**2>=             83.7304
 Charge=              0.0000 electrons
 Dipole moment (field-independent basis, Debye):
    X=              0.0000    Y=              0.0000    Z=              0.0000  Tot=              0.0000
 Quadrupole moment (field-independent basis, Debye-Ang):
   XX=            -12.0624   YY=            -12.3608   ZZ=            -15.7976
   XY=              0.0000   XZ=              0.0000   YZ=              0.0000
 Traceless Quadrupole moment (field-independent basis, Debye-Ang):
   XX=              1.3445   YY=              1.0462   ZZ=             -2.3907
   XY=              0.0000   XZ=              0.0000   YZ=              0.0000
 Octapole moment (field-independent basis, Debye-Ang**2):
  XXX=              0.0000  YYY=              0.0000  ZZZ=              0.0000  XYY=              0.0000
  XXY=              0.0000  XXZ=              0.0000  XZZ=              0.0000  YZZ=              0.0000
  YYZ=              0.0000  XYZ=              0.0000
 Hexadecapole moment (field-independent basis, Debye-Ang**3):
 XXXX=            -66.5806 YYYY=            -25.3085 ZZZZ=            -16.5981 XXXY=              0.0000
 XXXZ=              0.0000 YYYX=              0.0000 YYYZ=              0.0000 ZZZX=              0.0000
 ZZZY=              0.0000 XXYY=            -12.4951 XXZZ=            -15.1359 YYZZ=             -7.6492
 XXYZ=              0.0000 YYXZ=              0.0000 ZZXY=              0.0000
 N-N= 3.312520673895D+01 E-N=-2.461753740491D+02  KE= 7.723983699366D+01
 1\1\GINC-N0288\FOpt\RCCSD-FC\3-21G\C2H4\GDAVIDS3\21-Feb-2017\0\\#n CCS
 D/3-21G Opt\\Ethene CCSD 3-21G\\0,1\C,-7.6603213626,3.042118326,0.0000
 006589\C,-6.3216286985,2.9242740185,-0.0000006574\H,-8.2345671655,3.09
 30420975,-0.9247793992\H,-8.2346304603,3.0923022782,0.9247818469\H,-5.
 7473195001,2.8740917796,-0.9247818702\H,-5.7473828131,2.8733515001,0.9
 247794174\\Version=ES64L-G09RevE.01\State=1-A\HF=-77.5991635\MP2=-77.7
 812575\MP3=-77.7980912\MP4D=-77.8051941\MP4DQ=-77.8034501\MP4SDQ=-77.8
 051018\CCSD=-77.8081085\RMSD=1.772e-09\RMSF=1.995e-04\Dipole=0.,0.0000
 008,0.\PG=C01 [X(C2H4)]\\@


     "IF I COULD JUST GET IT ON PAPER"
 LIFE AND INK, THEY RUN OUT AT THE SAME TIME,
 OR SO SAID MY OLD FRIEND THE SQUID.
     -- JIMMY BUFFETT, 1981
 Job cpu time:       0 days  0 hours  1 minutes 11.6 seconds.
 File lengths (MBytes):  RWF=     13 Int=      0 D2E=      0 Chk=      1 Scr=      1
 Normal termination of Gaussian 09 at Tue Feb 21 17:54:38 2017.
