 Entering Gaussian System, Link 0=g09
 Input=Ethene_CCSD_6-31Gdp.com
 Output=Ethene_CCSD_6-31Gdp.log
 Initial command:
 /sw/contrib/gaussian/g09/E01/g09/l1.exe "/scr/Gau-9283.inp" -scrdir="/scr/"
 Entering Link 1 = /sw/contrib/gaussian/g09/E01/g09/l1.exe PID=      9284.
  
 Copyright (c) 1988,1990,1992,1993,1995,1998,2003,2009,2015,
            Gaussian, Inc.  All Rights Reserved.
  
 This is part of the Gaussian(R) 09 program.  It is based on
 the Gaussian(R) 03 system (copyright 2003, Gaussian, Inc.),
 the Gaussian(R) 98 system (copyright 1998, Gaussian, Inc.),
 the Gaussian(R) 94 system (copyright 1995, Gaussian, Inc.),
 the Gaussian 92(TM) system (copyright 1992, Gaussian, Inc.),
 the Gaussian 90(TM) system (copyright 1990, Gaussian, Inc.),
 the Gaussian 88(TM) system (copyright 1988, Gaussian, Inc.),
 the Gaussian 86(TM) system (copyright 1986, Carnegie Mellon
 University), and the Gaussian 82(TM) system (copyright 1983,
 Carnegie Mellon University). Gaussian is a federally registered
 trademark of Gaussian, Inc.
  
 This software contains proprietary and confidential information,
 including trade secrets, belonging to Gaussian, Inc.
  
 This software is provided under written license and may be
 used, copied, transmitted, or stored only in accord with that
 written license.
  
 The following legend is applicable only to US Government
 contracts under FAR:
  
                    RESTRICTED RIGHTS LEGEND
  
 Use, reproduction and disclosure by the US Government is
 subject to restrictions as set forth in subparagraphs (a)
 and (c) of the Commercial Computer Software - Restricted
 Rights clause in FAR 52.227-19.
  
 Gaussian, Inc.
 340 Quinnipiac St., Bldg. 40, Wallingford CT 06492
  
  
 ---------------------------------------------------------------
 Warning -- This program may not be used in any manner that
 competes with the business of Gaussian, Inc. or will provide
 assistance to any competitor of Gaussian, Inc.  The licensee
 of this program is prohibited from giving any competitor of
 Gaussian, Inc. access to this program.  By using this program,
 the user acknowledges that Gaussian, Inc. is engaged in the
 business of creating and licensing software in the field of
 computational chemistry and represents and warrants to the
 licensee that it is not a competitor of Gaussian, Inc. and that
 it will not use this program in any manner prohibited above.
 ---------------------------------------------------------------
  

 Cite this work as:
 Gaussian 09, Revision E.01,
 M. J. Frisch, G. W. Trucks, H. B. Schlegel, G. E. Scuseria, 
 M. A. Robb, J. R. Cheeseman, G. Scalmani, V. Barone, B. Mennucci, 
 G. A. Petersson, H. Nakatsuji, M. Caricato, X. Li, H. P. Hratchian, 
 A. F. Izmaylov, J. Bloino, G. Zheng, J. L. Sonnenberg, M. Hada, 
 M. Ehara, K. Toyota, R. Fukuda, J. Hasegawa, M. Ishida, T. Nakajima, 
 Y. Honda, O. Kitao, H. Nakai, T. Vreven, J. A. Montgomery, Jr., 
 J. E. Peralta, F. Ogliaro, M. Bearpark, J. J. Heyd, E. Brothers, 
 K. N. Kudin, V. N. Staroverov, T. Keith, R. Kobayashi, J. Normand, 
 K. Raghavachari, A. Rendell, J. C. Burant, S. S. Iyengar, J. Tomasi, 
 M. Cossi, N. Rega, J. M. Millam, M. Klene, J. E. Knox, J. B. Cross, 
 V. Bakken, C. Adamo, J. Jaramillo, R. Gomperts, R. E. Stratmann, 
 O. Yazyev, A. J. Austin, R. Cammi, C. Pomelli, J. W. Ochterski, 
 R. L. Martin, K. Morokuma, V. G. Zakrzewski, G. A. Voth, 
 P. Salvador, J. J. Dannenberg, S. Dapprich, A. D. Daniels, 
 O. Farkas, J. B. Foresman, J. V. Ortiz, J. Cioslowski, 
 and D. J. Fox, Gaussian, Inc., Wallingford CT, 2013.
 
 ******************************************
 Gaussian 09:  ES64L-G09RevE.01 30-Nov-2015
                21-Feb-2017 
 ******************************************
 %NProcShared=8
 Will use up to    8 processors via shared memory.
 ----------------------
 #n CCSD/6-31G(d,p) Opt
 ----------------------
 1/18=20,19=15,38=1/1,3;
 2/9=110,12=2,17=6,18=5,40=1/2;
 3/5=1,6=6,7=101,11=9,16=1,25=1,30=1,71=1/1,2,3;
 4//1;
 5/5=2,38=5/2;
 8/6=4,9=120000,10=2/1,4;
 9/5=7,15=1/13;
 11/28=-8,29=200,42=3/11;
 10/5=6/2;
 6/7=2,8=2,9=2,10=2/1;
 7/12=7/1,2,3,16;
 1/18=20,19=15/3(2);
 2/9=110/2;
 99//99;
 2/9=110/2;
 3/5=1,6=6,7=101,11=9,16=1,25=1,30=1,71=1/1,2,3;
 4/5=5,16=3,69=1/1;
 5/5=2,38=5/2;
 8/6=4,9=120000,10=2/1,4;
 9/5=7,15=1/13;
 11/28=-8,29=200,42=3/11;
 10/5=6/2;
 7/12=7/1,2,3,16;
 1/18=20,19=15/3(-9);
 2/9=110/2;
 6/7=2,8=2,9=2,10=2/1;
 99//99;
 -------------------
 Ethene CCSD 6-31Gdp
 -------------------
 Symbolic Z-matrix:
 Charge =  0 Multiplicity = 1
 C                    -7.65068   3.04127   0. 
 C                    -6.33127   2.92512   0. 
 H                    -8.2108    3.09095  -0.93056 
 H                    -8.21086   3.09021   0.93056 
 H                    -5.77109   2.87619  -0.93056 
 H                    -5.77115   2.87544   0.93056 
 

 GradGradGradGradGradGradGradGradGradGradGradGradGradGradGradGradGradGrad
 Berny optimization.
 Initialization pass.
                           ----------------------------
                           !    Initial Parameters    !
                           ! (Angstroms and Degrees)  !
 --------------------------                            --------------------------
 ! Name  Definition              Value          Derivative Info.                !
 --------------------------------------------------------------------------------
 ! R1    R(1,2)                  1.3245         estimate D2E/DX2                !
 ! R2    R(1,3)                  1.0873         estimate D2E/DX2                !
 ! R3    R(1,4)                  1.0873         estimate D2E/DX2                !
 ! R4    R(2,5)                  1.0873         estimate D2E/DX2                !
 ! R5    R(2,6)                  1.0873         estimate D2E/DX2                !
 ! A1    A(2,1,3)              121.1437         estimate D2E/DX2                !
 ! A2    A(2,1,4)              121.1435         estimate D2E/DX2                !
 ! A3    A(3,1,4)              117.7128         estimate D2E/DX2                !
 ! A4    A(1,2,5)              121.1435         estimate D2E/DX2                !
 ! A5    A(1,2,6)              121.1437         estimate D2E/DX2                !
 ! A6    A(5,2,6)              117.7128         estimate D2E/DX2                !
 ! D1    D(3,1,2,5)              0.0007         estimate D2E/DX2                !
 ! D2    D(3,1,2,6)            180.0            estimate D2E/DX2                !
 ! D3    D(4,1,2,5)           -179.9994         estimate D2E/DX2                !
 ! D4    D(4,1,2,6)             -0.0001         estimate D2E/DX2                !
 --------------------------------------------------------------------------------
 Trust Radius=3.00D-01 FncErr=1.00D-07 GrdErr=1.00D-07
 Number of steps in this run=     25 maximum allowed number of steps=    100.
 GradGradGradGradGradGradGradGradGradGradGradGradGradGradGradGradGradGrad

                          Input orientation:                          
 ---------------------------------------------------------------------
 Center     Atomic      Atomic             Coordinates (Angstroms)
 Number     Number       Type             X           Y           Z
 ---------------------------------------------------------------------
      1          6           0       -7.650680    3.041270    0.000000
      2          6           0       -6.331270    2.925120    0.000000
      3          1           0       -8.210800    3.090950   -0.930560
      4          1           0       -8.210860    3.090210    0.930560
      5          1           0       -5.771090    2.876190   -0.930560
      6          1           0       -5.771150    2.875440    0.930560
 ---------------------------------------------------------------------
                    Distance matrix (angstroms):
                    1          2          3          4          5
     1  C    0.000000
     2  C    1.324513   0.000000
     3  H    1.087265   2.103824   0.000000
     4  H    1.087262   2.103819   1.861120   0.000000
     5  H    2.103818   1.087262   2.449144   3.076045   0.000000
     6  H    2.103824   1.087265   3.076053   2.449145   1.861120
                    6
     6  H    0.000000
 Stoichiometry    C2H4
 Framework group  C1[X(C2H4)]
 Deg. of freedom    12
 Full point group                 C1      NOp   1
 Largest Abelian subgroup         C1      NOp   1
 Largest concise Abelian subgroup C1      NOp   1
                         Standard orientation:                         
 ---------------------------------------------------------------------
 Center     Atomic      Atomic             Coordinates (Angstroms)
 Number     Number       Type             X           Y           Z
 ---------------------------------------------------------------------
      1          6           0       -0.662256   -0.000001    0.000000
      2          6           0        0.662256    0.000001   -0.000002
      3          1           0       -1.224576    0.930558   -0.000002
      4          1           0       -1.224569   -0.930562    0.000003
      5          1           0        1.224568    0.930562    0.000006
      6          1           0        1.224576   -0.930558    0.000001
 ---------------------------------------------------------------------
 Rotational constants (GHZ):    144.7715521     30.4973425     25.1907084
 Standard basis: 6-31G(d,p) (6D, 7F)
 There are    50 symmetry adapted cartesian basis functions of A   symmetry.
 There are    50 symmetry adapted basis functions of A   symmetry.
    50 basis functions,    84 primitive gaussians,    50 cartesian basis functions
     8 alpha electrons        8 beta electrons
       nuclear repulsion energy        33.4454879269 Hartrees.
 NAtoms=    6 NActive=    6 NUniq=    6 SFac= 1.00D+00 NAtFMM=   60 NAOKFM=F Big=F
 Integral buffers will be    131072 words long.
 Raffenetti 1 integral format.
 Two-electron integral symmetry is turned on.
 One-electron integrals computed using PRISM.
 NBasis=    50 RedAO= T EigKep=  6.75D-03  NBF=    50
 NBsUse=    50 1.00D-06 EigRej= -1.00D+00 NBFU=    50
 ExpMin= 1.61D-01 ExpMax= 3.05D+03 ExpMxC= 4.57D+02 IAcc=1 IRadAn=         1 AccDes= 0.00D+00
 Harris functional with IExCor=  205 and IRadAn=       1 diagonalized for initial guess.
 HarFok:  IExCor=  205 AccDes= 0.00D+00 IRadAn=         1 IDoV= 1 UseB2=F ITyADJ=14
 ICtDFT=  3500011 ScaDFX=  1.000000  1.000000  1.000000  1.000000
 FoFCou: FMM=F IPFlag=           0 FMFlag=      100000 FMFlg1=           0
         NFxFlg=           0 DoJE=T BraDBF=F KetDBF=T FulRan=T
         wScrn=  0.000000 ICntrl=     500 IOpCl=  0 I1Cent=   200000004 NGrid=           0
         NMat0=    1 NMatS0=      1 NMatT0=    0 NMatD0=    1 NMtDS0=    0 NMtDT0=    0
 Petite list used in FoFCou.
 Keep R1 ints in memory in canonical form, NReq=1679714.
 Requested convergence on RMS density matrix=1.00D-08 within 128 cycles.
 Requested convergence on MAX density matrix=1.00D-06.
 Requested convergence on             energy=1.00D-06.
 No special actions if energy rises.
 SCF Done:  E(RHF) =  -78.0383400595     A.U. after    9 cycles
            NFock=  9  Conv=0.22D-08     -V/T= 2.0018
 ExpMin= 1.61D-01 ExpMax= 3.05D+03 ExpMxC= 4.57D+02 IAcc=3 IRadAn=         5 AccDes= 0.00D+00
 HarFok:  IExCor=  205 AccDes= 0.00D+00 IRadAn=         5 IDoV=-2 UseB2=F ITyADJ=14
 ICtDFT= 12500011 ScaDFX=  1.000000  1.000000  1.000000  1.000000
 Range of M.O.s used for correlation:     3    50
 NBasis=    50 NAE=     8 NBE=     8 NFC=     2 NFV=     0
 NROrb=     48 NOA=     6 NOB=     6 NVA=    42 NVB=    42
 Semi-Direct transformation.
 ModeAB=           2 MOrb=             6 LenV=      33351939
 LASXX=       297291 LTotXX=      297291 LenRXX=      297291
 LTotAB=      315756 MaxLAS=      367200 LenRXY=      367200
 NonZer=      594582 LenScr=     1571840 LnRSAI=           0
 LnScr1=           0 LExtra=           0 Total=      2236331
 MaxDsk=          -1 SrtSym=           F ITran=            4
 JobTyp=0 Pass  1:  I=   1 to   6.
 (rs|ai) integrals will be sorted in core.
 SymMOI:  orbitals are not symmetric.
 Spin components of T(2) and E(2):
     alpha-alpha T2 =       0.1037003562D-01 E2=     -0.2983011372D-01
     alpha-beta  T2 =       0.7572719788D-01 E2=     -0.2189673998D+00
     beta-beta   T2 =       0.1037003562D-01 E2=     -0.2983011372D-01
 ANorm=    0.1047123330D+01
 E2 =    -0.2786276272D+00 EUMP2 =    -0.78316967686750D+02
 Keep R2 and R3 ints in memory in canonical form, NReq=2448198.
 Iterations=  50 Convergence= 0.100D-07
 Iteration Nr.   1
 **********************
 DD1Dir will call FoFMem   1 times, MxPair=        42
 NAB=    21 NAA=     0 NBB=     0.
 MP4(R+Q)=  0.56243371D-02
 E3=       -0.23048018D-01        EUMP3=      -0.78340015705D+02
 E4(DQ)=   -0.19654694D-02        UMP4(DQ)=   -0.78341981174D+02
 E4(SDQ)=  -0.42830025D-02        UMP4(SDQ)=  -0.78344298707D+02
 DE(Corr)= -0.29592567     E(Corr)=     -78.334265728    
 NORM(A)=   0.10556820D+01
 Iteration Nr.   2
 **********************
 DD1Dir will call FoFMem   1 times, MxPair=        42
 NAB=    21 NAA=     0 NBB=     0.
 DE(Corr)= -0.30405738     E(CORR)=     -78.342397438     Delta=-8.13D-03
 NORM(A)=   0.10612376D+01
 Iteration Nr.   3
 **********************
 DD1Dir will call FoFMem   1 times, MxPair=        42
 NAB=    21 NAA=     0 NBB=     0.
 DE(Corr)= -0.30606680     E(CORR)=     -78.344406860     Delta=-2.01D-03
 NORM(A)=   0.10628155D+01
 Iteration Nr.   4
 **********************
 DD1Dir will call FoFMem   1 times, MxPair=        42
 NAB=    21 NAA=     0 NBB=     0.
 DE(Corr)= -0.30687545     E(CORR)=     -78.345215510     Delta=-8.09D-04
 NORM(A)=   0.10632228D+01
 Iteration Nr.   5
 **********************
 DD1Dir will call FoFMem   1 times, MxPair=        42
 NAB=    21 NAA=     0 NBB=     0.
 DE(Corr)= -0.30696251     E(CORR)=     -78.345302569     Delta=-8.71D-05
 NORM(A)=   0.10632516D+01
 Iteration Nr.   6
 **********************
 DD1Dir will call FoFMem   1 times, MxPair=        42
 NAB=    21 NAA=     0 NBB=     0.
 DE(Corr)= -0.30696467     E(CORR)=     -78.345304726     Delta=-2.16D-06
 NORM(A)=   0.10632517D+01
 Iteration Nr.   7
 **********************
 DD1Dir will call FoFMem   1 times, MxPair=        42
 NAB=    21 NAA=     0 NBB=     0.
 DE(Corr)= -0.30696430     E(CORR)=     -78.345304360     Delta= 3.66D-07
 NORM(A)=   0.10632535D+01
 Iteration Nr.   8
 **********************
 DD1Dir will call FoFMem   1 times, MxPair=        42
 NAB=    21 NAA=     0 NBB=     0.
 DE(Corr)= -0.30696430     E(CORR)=     -78.345304363     Delta=-2.32D-09
 NORM(A)=   0.10632534D+01
 Iteration Nr.   9
 **********************
 DD1Dir will call FoFMem   1 times, MxPair=        42
 NAB=    21 NAA=     0 NBB=     0.
 DE(Corr)= -0.30696442     E(CORR)=     -78.345304480     Delta=-1.17D-07
 NORM(A)=   0.10632535D+01
 Iteration Nr.  10
 **********************
 DD1Dir will call FoFMem   1 times, MxPair=        42
 NAB=    21 NAA=     0 NBB=     0.
 DE(Corr)= -0.30696444     E(CORR)=     -78.345304497     Delta=-1.74D-08
 NORM(A)=   0.10632535D+01
 Iteration Nr.  11
 **********************
 DD1Dir will call FoFMem   1 times, MxPair=        42
 NAB=    21 NAA=     0 NBB=     0.
 DE(Corr)= -0.30696446     E(CORR)=     -78.345304517     Delta=-1.96D-08
 NORM(A)=   0.10632535D+01
 Iteration Nr.  12
 **********************
 DD1Dir will call FoFMem   1 times, MxPair=        42
 NAB=    21 NAA=     0 NBB=     0.
 DE(Corr)= -0.30696446     E(CORR)=     -78.345304523     Delta=-6.62D-09
 NORM(A)=   0.10632535D+01
 Dominant configurations:
 ***********************
 Spin Case        I    J    A    B          Value
   ABAB           8    8    9    9      -0.142898D+00
 Largest amplitude= 1.43D-01

 Z-AMPLITUDE ITERATIONS

 Iteration Nr.   1
 **********************
 DD1Dir will call FoFMem   1 times, MxPair=        42
 NAB=    21 NAA=     0 NBB=     0.
 DE(Z)  -0.29830078D+00          E(Z)=    -0.78336640844D+02
 NORM(A)=   0.10632552D+01
 Iteration Nr.   2
 **********************
 DD1Dir will call FoFMem   1 times, MxPair=        42
 NAB=    21 NAA=     0 NBB=     0.
 DE(Z)  -0.29830122D+00          E(Z)=    -0.78336641283D+02
 NORM(A)=   0.10632235D+01
 Iteration Nr.   3
 **********************
 DD1Dir will call FoFMem   1 times, MxPair=        42
 NAB=    21 NAA=     0 NBB=     0.
 DE(Z)  -0.29829352D+00          E(Z)=    -0.78336633575D+02
 NORM(A)=   0.10632501D+01
 Iteration Nr.   4
 **********************
 DD1Dir will call FoFMem   1 times, MxPair=        42
 NAB=    21 NAA=     0 NBB=     0.
 DE(Z)  -0.29829995D+00          E(Z)=    -0.78336640014D+02
 NORM(A)=   0.10632551D+01
 Iteration Nr.   5
 **********************
 DD1Dir will call FoFMem   1 times, MxPair=        42
 NAB=    21 NAA=     0 NBB=     0.
 DE(Z)  -0.29830116D+00          E(Z)=    -0.78336641216D+02
 NORM(A)=   0.10586839D+01
 Iteration Nr.   6
 **********************
 DD1Dir will call FoFMem   1 times, MxPair=        42
 NAB=    21 NAA=     0 NBB=     0.
 DE(Z)  -0.29714324D+00          E(Z)=    -0.78335483303D+02
 NORM(A)=   0.10586849D+01
 Iteration Nr.   7
 **********************
 DD1Dir will call FoFMem   1 times, MxPair=        42
 NAB=    21 NAA=     0 NBB=     0.
 DE(Z)  -0.29714277D+00          E(Z)=    -0.78335482826D+02
 NORM(A)=   0.10586844D+01
 Iteration Nr.   8
 **********************
 DD1Dir will call FoFMem   1 times, MxPair=        42
 NAB=    21 NAA=     0 NBB=     0.
 DE(Z)  -0.29714269D+00          E(Z)=    -0.78335482750D+02
 NORM(A)=   0.10586841D+01
 Iteration Nr.   9
 **********************
 DD1Dir will call FoFMem   1 times, MxPair=        42
 NAB=    21 NAA=     0 NBB=     0.
 DE(Z)  -0.29714260D+00          E(Z)=    -0.78335482655D+02
 NORM(A)=   0.10586839D+01
 Iteration Nr.  10
 **********************
 DD1Dir will call FoFMem   1 times, MxPair=        42
 NAB=    21 NAA=     0 NBB=     0.
 DE(Z)  -0.29714257D+00          E(Z)=    -0.78335482631D+02
 NORM(A)=   0.10586839D+01
 Iteration Nr.  11
 **********************
 DD1Dir will call FoFMem   1 times, MxPair=        42
 NAB=    21 NAA=     0 NBB=     0.
 DE(Z)  -0.29714257D+00          E(Z)=    -0.78335482629D+02
 NORM(A)=   0.10586839D+01
 Discarding MO integrals.
          IDoAtm=111111
          Differentiating once with respect to electric field.
                with respect to dipole field.
          Differentiating once with respect to nuclear coordinates.
 Keep R1 ints in memory in canonical form, NReq=1662452.
          There are     1 degrees of freedom in the 1st order CPHF.  IDoFFX=0 NUNeed=     1.
 LinEq1:  Iter=  0 NonCon=     1 RMS=5.20D-03 Max=7.62D-02 NDo=     1
 AX will form     1 AO Fock derivatives at one time.
 LinEq1:  Iter=  1 NonCon=     1 RMS=1.51D-03 Max=1.31D-02 NDo=     1
 LinEq1:  Iter=  2 NonCon=     1 RMS=2.59D-04 Max=2.54D-03 NDo=     1
 LinEq1:  Iter=  3 NonCon=     1 RMS=3.46D-05 Max=2.31D-04 NDo=     1
 LinEq1:  Iter=  4 NonCon=     1 RMS=3.39D-06 Max=2.43D-05 NDo=     1
 LinEq1:  Iter=  5 NonCon=     1 RMS=2.51D-07 Max=1.82D-06 NDo=     1
 LinEq1:  Iter=  6 NonCon=     1 RMS=2.05D-08 Max=1.35D-07 NDo=     1
 LinEq1:  Iter=  7 NonCon=     1 RMS=1.29D-09 Max=9.65D-09 NDo=     1
 LinEq1:  Iter=  8 NonCon=     0 RMS=7.84D-11 Max=3.78D-10 NDo=     1
 Linear equations converged to 1.000D-10 1.000D-09 after     8 iterations.
 End of Minotr F.D. properties file   721 does not exist.
 End of Minotr F.D. properties file   722 does not exist.
 End of Minotr F.D. properties file   788 does not exist.

 **********************************************************************

            Population analysis using the SCF density.

 **********************************************************************

 Orbital symmetries:
       Occupied  (A) (A) (A) (A) (A) (A) (A) (A)
       Virtual   (A) (A) (A) (A) (A) (A) (A) (A) (A) (A) (A) (A)
                 (A) (A) (A) (A) (A) (A) (A) (A) (A) (A) (A) (A)
                 (A) (A) (A) (A) (A) (A) (A) (A) (A) (A) (A) (A)
                 (A) (A) (A) (A) (A) (A)
 The electronic state is 1-A.
 Alpha  occ. eigenvalues --  -11.22820 -11.22647  -1.02985  -0.78364  -0.63776
 Alpha  occ. eigenvalues --   -0.57946  -0.49970  -0.37284
 Alpha virt. eigenvalues --    0.18108   0.26261   0.29047   0.30834   0.39018
 Alpha virt. eigenvalues --    0.49147   0.65798   0.76991   0.77361   0.84996
 Alpha virt. eigenvalues --    0.89143   0.96193   1.07888   1.11748   1.16846
 Alpha virt. eigenvalues --    1.17725   1.33615   1.46198   1.64853   1.66925
 Alpha virt. eigenvalues --    1.80920   2.13727   2.19331   2.27153   2.32468
 Alpha virt. eigenvalues --    2.35477   2.44496   2.53142   2.67322   2.76708
 Alpha virt. eigenvalues --    2.84927   2.94493   3.01669   3.03439   3.08016
 Alpha virt. eigenvalues --    3.35295   3.53021   3.71163   3.86372   4.14023
 Alpha virt. eigenvalues --    4.60163   4.91627
          Condensed to atoms (all electrons):
               1          2          3          4          5          6
     1  C    4.880754   0.639931   0.408374   0.408374  -0.040882  -0.040882
     2  C    0.639931   4.880754  -0.040882  -0.040882   0.408374   0.408374
     3  H    0.408374  -0.040882   0.535912  -0.029919  -0.004540   0.003221
     4  H    0.408374  -0.040882  -0.029919   0.535912   0.003221  -0.004540
     5  H   -0.040882   0.408374  -0.004540   0.003221   0.535912  -0.029919
     6  H   -0.040882   0.408374   0.003221  -0.004540  -0.029919   0.535912
 Mulliken charges:
               1
     1  C   -0.255668
     2  C   -0.255668
     3  H    0.127834
     4  H    0.127834
     5  H    0.127834
     6  H    0.127834
 Sum of Mulliken charges =   0.00000
 Mulliken charges with hydrogens summed into heavy atoms:
               1
     1  C    0.000000
     2  C    0.000000
 Electronic spatial extent (au):  <R**2>=             82.1043
 Charge=              0.0000 electrons
 Dipole moment (field-independent basis, Debye):
    X=              0.0000    Y=              0.0000    Z=              0.0000  Tot=              0.0000
 Quadrupole moment (field-independent basis, Debye-Ang):
   XX=            -12.1177   YY=            -12.1622   ZZ=            -15.4256
   XY=              0.0000   XZ=              0.0000   YZ=              0.0000
 Traceless Quadrupole moment (field-independent basis, Debye-Ang):
   XX=              1.1175   YY=              1.0730   ZZ=             -2.1905
   XY=              0.0000   XZ=              0.0000   YZ=              0.0000
 Octapole moment (field-independent basis, Debye-Ang**2):
  XXX=              0.0000  YYY=              0.0000  ZZZ=              0.0000  XYY=              0.0000
  XXY=              0.0000  XXZ=              0.0000  XZZ=              0.0000  YZZ=              0.0000
  YYZ=              0.0000  XYZ=              0.0000
 Hexadecapole moment (field-independent basis, Debye-Ang**3):
 XXXX=            -66.4737 YYYY=            -26.2113 ZZZZ=            -16.5013 XXXY=             -0.0001
 XXXZ=              0.0000 YYYX=              0.0000 YYYZ=              0.0000 ZZZX=              0.0000
 ZZZY=              0.0000 XXYY=            -12.8473 XXZZ=            -14.7734 YYZZ=             -7.8268
 XXYZ=              0.0000 YYXZ=              0.0000 ZZXY=              0.0000
 N-N= 3.344548792691D+01 E-N=-2.481474214553D+02  KE= 7.789558254548D+01
 Calling FoFJK, ICntrl=  10002127 FMM=F ISym2X=0 I1Cent= 0 IOpClX= 0 NMat=1 NMatS=1 NMatT=0.
 ***** Axes restored to original set *****
 -------------------------------------------------------------------
 Center     Atomic                   Forces (Hartrees/Bohr)
 Number     Number              X              Y              Z
 -------------------------------------------------------------------
      1        6          -0.016080666    0.001415367   -0.000000798
      2        6           0.016080480   -0.001414729    0.000001047
      3        1           0.000129077   -0.000012915    0.004370866
      4        1           0.000128014   -0.000009729   -0.004369418
      5        1          -0.000127857    0.000008973    0.004369194
      6        1          -0.000129047    0.000013032   -0.004370891
 -------------------------------------------------------------------
 Cartesian Forces:  Max     0.016080666 RMS     0.005762097

 GradGradGradGradGradGradGradGradGradGradGradGradGradGradGradGradGradGrad
 Berny optimization.
 FormGI is forming the generalized inverse of G from B-inverse, IUseBI=4.
 Internal  Forces:  Max     0.015884748 RMS     0.004735043
 Search for a local minimum.
 Step number   1 out of a maximum of   25
 All quantities printed in internal units (Hartrees-Bohrs-Radians)
 Mixed Optimization -- RFO/linear search
 Second derivative matrix not updated -- first step.
 The second derivative matrix:
                          R1        R2        R3        R4        R5
           R1           0.60821
           R2           0.00000   0.35131
           R3           0.00000   0.00000   0.35131
           R4           0.00000   0.00000   0.00000   0.35131
           R5           0.00000   0.00000   0.00000   0.00000   0.35131
           A1           0.00000   0.00000   0.00000   0.00000   0.00000
           A2           0.00000   0.00000   0.00000   0.00000   0.00000
           A3           0.00000   0.00000   0.00000   0.00000   0.00000
           A4           0.00000   0.00000   0.00000   0.00000   0.00000
           A5           0.00000   0.00000   0.00000   0.00000   0.00000
           A6           0.00000   0.00000   0.00000   0.00000   0.00000
           D1           0.00000   0.00000   0.00000   0.00000   0.00000
           D2           0.00000   0.00000   0.00000   0.00000   0.00000
           D3           0.00000   0.00000   0.00000   0.00000   0.00000
           D4           0.00000   0.00000   0.00000   0.00000   0.00000
                          A1        A2        A3        A4        A5
           A1           0.16000
           A2           0.00000   0.16000
           A3           0.00000   0.00000   0.16000
           A4           0.00000   0.00000   0.00000   0.16000
           A5           0.00000   0.00000   0.00000   0.00000   0.16000
           A6           0.00000   0.00000   0.00000   0.00000   0.00000
           D1           0.00000   0.00000   0.00000   0.00000   0.00000
           D2           0.00000   0.00000   0.00000   0.00000   0.00000
           D3           0.00000   0.00000   0.00000   0.00000   0.00000
           D4           0.00000   0.00000   0.00000   0.00000   0.00000
                          A6        D1        D2        D3        D4
           A6           0.16000
           D1           0.00000   0.03087
           D2           0.00000   0.00000   0.03087
           D3           0.00000   0.00000   0.00000   0.03087
           D4           0.00000   0.00000   0.00000   0.00000   0.03087
 ITU=  0
     Eigenvalues ---    0.03087   0.03087   0.03087   0.16000   0.16000
     Eigenvalues ---    0.16000   0.16000   0.35131   0.35131   0.35131
     Eigenvalues ---    0.35131   0.60821
 RFO step:  Lambda=-7.40857239D-04 EMin= 3.08730960D-02
 Linear search not attempted -- first point.
 Iteration  1 RMS(Cart)=  0.01632230 RMS(Int)=  0.00006144
 Iteration  2 RMS(Cart)=  0.00006077 RMS(Int)=  0.00000000
 Iteration  3 RMS(Cart)=  0.00000000 RMS(Int)=  0.00000000
 Variable       Old X    -DE/DX   Delta X   Delta X   Delta X     New X
                                 (Linear)    (Quad)   (Total)
    R1        2.50297   0.01588   0.00000   0.02609   0.02609   2.52905
    R2        2.05463  -0.00381   0.00000  -0.01082  -0.01082   2.04382
    R3        2.05463  -0.00381   0.00000  -0.01081  -0.01081   2.04382
    R4        2.05463  -0.00381   0.00000  -0.01081  -0.01081   2.04382
    R5        2.05463  -0.00381   0.00000  -0.01082  -0.01082   2.04382
    A1        2.11436   0.00147   0.00000   0.00916   0.00916   2.12351
    A2        2.11435   0.00147   0.00000   0.00916   0.00916   2.12351
    A3        2.05448  -0.00294   0.00000  -0.01832  -0.01832   2.03616
    A4        2.11435   0.00147   0.00000   0.00916   0.00916   2.12351
    A5        2.11436   0.00147   0.00000   0.00916   0.00916   2.12351
    A6        2.05448  -0.00294   0.00000  -0.01832  -0.01832   2.03616
    D1        0.00001   0.00000   0.00000  -0.00001  -0.00001   0.00000
    D2        3.14159   0.00000   0.00000   0.00000   0.00000  -3.14159
    D3       -3.14158   0.00000   0.00000  -0.00001  -0.00001   3.14159
    D4        0.00000   0.00000   0.00000   0.00000   0.00000   0.00000
         Item               Value     Threshold  Converged?
 Maximum Force            0.015885     0.000450     NO 
 RMS     Force            0.004735     0.000300     NO 
 Maximum Displacement     0.023341     0.001800     NO 
 RMS     Displacement     0.016292     0.001200     NO 
 Predicted change in Energy=-3.712286D-04
 GradGradGradGradGradGradGradGradGradGradGradGradGradGradGradGradGradGrad

                          Input orientation:                          
 ---------------------------------------------------------------------
 Center     Atomic      Atomic             Coordinates (Angstroms)
 Number     Number       Type             X           Y           Z
 ---------------------------------------------------------------------
      1          6           0       -7.657555    3.041876    0.000001
      2          6           0       -6.324394    2.924519   -0.000001
      3          1           0       -8.223148    3.092035   -0.920499
      4          1           0       -8.223212    3.091298    0.920501
      5          1           0       -5.758739    2.875094   -0.920502
      6          1           0       -5.758802    2.874358    0.920499
 ---------------------------------------------------------------------
                    Distance matrix (angstroms):
                    1          2          3          4          5
     1  C    0.000000
     2  C    1.338316   0.000000
     3  H    1.081541   2.116753   0.000000
     4  H    1.081541   2.116754   1.841000   0.000000
     5  H    2.116754   1.081541   2.473939   3.083774   0.000000
     6  H    2.116753   1.081541   3.083773   2.473940   1.841001
                    6
     6  H    0.000000
 Stoichiometry    C2H4
 Framework group  C1[X(C2H4)]
 Deg. of freedom    12
 Full point group                 C1      NOp   1
 Largest Abelian subgroup         C1      NOp   1
 Largest concise Abelian subgroup C1      NOp   1
                         Standard orientation:                         
 ---------------------------------------------------------------------
 Center     Atomic      Atomic             Coordinates (Angstroms)
 Number     Number       Type             X           Y           Z
 ---------------------------------------------------------------------
      1          6           0       -0.669158    0.000000    0.000000
      2          6           0        0.669158    0.000000    0.000000
      3          1           0       -1.236969    0.920500   -0.000001
      4          1           0       -1.236970   -0.920500   -0.000001
      5          1           0        1.236970    0.920500   -0.000001
      6          1           0        1.236969   -0.920500   -0.000001
 ---------------------------------------------------------------------
 Rotational constants (GHZ):    147.9531626     29.8778922     24.8580240
 Standard basis: 6-31G(d,p) (6D, 7F)
 There are    50 symmetry adapted cartesian basis functions of A   symmetry.
 There are    50 symmetry adapted basis functions of A   symmetry.
    50 basis functions,    84 primitive gaussians,    50 cartesian basis functions
     8 alpha electrons        8 beta electrons
       nuclear repulsion energy        33.3230813564 Hartrees.
 NAtoms=    6 NActive=    6 NUniq=    6 SFac= 1.00D+00 NAtFMM=   60 NAOKFM=F Big=F
 Integral buffers will be    131072 words long.
 Raffenetti 1 integral format.
 Two-electron integral symmetry is turned on.
 One-electron integrals computed using PRISM.
 NBasis=    50 RedAO= T EigKep=  7.12D-03  NBF=    50
 NBsUse=    50 1.00D-06 EigRej= -1.00D+00 NBFU=    50
 Initial guess from the checkpoint file:  "/scr/Gau-9284.chk"
 B after Tr=     0.000000    0.000000    0.000000
         Rot=    1.000000    0.000000    0.000000    0.000001 Ang=   0.00 deg.
 ExpMin= 1.61D-01 ExpMax= 3.05D+03 ExpMxC= 4.57D+02 IAcc=1 IRadAn=         1 AccDes= 0.00D+00
 Harris functional with IExCor=  205 and IRadAn=       1 diagonalized for initial guess.
 HarFok:  IExCor=  205 AccDes= 0.00D+00 IRadAn=         1 IDoV= 1 UseB2=F ITyADJ=14
 ICtDFT=  3500011 ScaDFX=  1.000000  1.000000  1.000000  1.000000
 FoFCou: FMM=F IPFlag=           0 FMFlag=      100000 FMFlg1=           0
         NFxFlg=           0 DoJE=T BraDBF=F KetDBF=T FulRan=T
         wScrn=  0.000000 ICntrl=     500 IOpCl=  0 I1Cent=   200000004 NGrid=           0
         NMat0=    1 NMatS0=      1 NMatT0=    0 NMatD0=    1 NMtDS0=    0 NMtDT0=    0
 Petite list used in FoFCou.
 Keep R1 ints in memory in canonical form, NReq=1679770.
 Requested convergence on RMS density matrix=1.00D-08 within 128 cycles.
 Requested convergence on MAX density matrix=1.00D-06.
 Requested convergence on             energy=1.00D-06.
 No special actions if energy rises.
 SCF Done:  E(RHF) =  -78.0381491720     A.U. after    7 cycles
            NFock=  7  Conv=0.55D-08     -V/T= 2.0020
 ExpMin= 1.61D-01 ExpMax= 3.05D+03 ExpMxC= 4.57D+02 IAcc=3 IRadAn=         5 AccDes= 0.00D+00
 HarFok:  IExCor=  205 AccDes= 0.00D+00 IRadAn=         5 IDoV=-2 UseB2=F ITyADJ=14
 ICtDFT= 12500011 ScaDFX=  1.000000  1.000000  1.000000  1.000000
 Range of M.O.s used for correlation:     3    50
 NBasis=    50 NAE=     8 NBE=     8 NFC=     2 NFV=     0
 NROrb=     48 NOA=     6 NOB=     6 NVA=    42 NVB=    42
 Semi-Direct transformation.
 ModeAB=           2 MOrb=             6 LenV=      33351939
 LASXX=       297291 LTotXX=      297291 LenRXX=      297291
 LTotAB=      315756 MaxLAS=      367200 LenRXY=      367200
 NonZer=      594582 LenScr=     1571840 LnRSAI=           0
 LnScr1=           0 LExtra=           0 Total=      2236331
 MaxDsk=          -1 SrtSym=           F ITran=            4
 JobTyp=0 Pass  1:  I=   1 to   6.
 (rs|ai) integrals will be sorted in core.
 SymMOI:  orbitals are not symmetric.
 Spin components of T(2) and E(2):
     alpha-alpha T2 =       0.1042895115D-01 E2=     -0.2987227875D-01
     alpha-beta  T2 =       0.7620175218D-01 E2=     -0.2193717835D+00
     beta-beta   T2 =       0.1042895115D-01 E2=     -0.2987227875D-01
 ANorm=    0.1047406155D+01
 E2 =    -0.2791163410D+00 EUMP2 =    -0.78317265512998D+02
 Keep R2 and R3 ints in memory in canonical form, NReq=2448198.
 Iterations=  50 Convergence= 0.100D-07
 Iteration Nr.   1
 **********************
 DD1Dir will call FoFMem   1 times, MxPair=        42
 NAB=    21 NAA=     0 NBB=     0.
 MP4(R+Q)=  0.56818075D-02
 E3=       -0.23015742D-01        EUMP3=      -0.78340281255D+02
 E4(DQ)=   -0.19708558D-02        UMP4(DQ)=   -0.78342252111D+02
 E4(SDQ)=  -0.43507491D-02        UMP4(SDQ)=  -0.78344632004D+02
 DE(Corr)= -0.29632170     E(Corr)=     -78.334470868    
 NORM(A)=   0.10559809D+01
 Iteration Nr.   2
 **********************
 DD1Dir will call FoFMem   1 times, MxPair=        42
 NAB=    21 NAA=     0 NBB=     0.
 DE(Corr)= -0.30454674     E(CORR)=     -78.342695911     Delta=-8.23D-03
 NORM(A)=   0.10616625D+01
 Iteration Nr.   3
 **********************
 DD1Dir will call FoFMem   1 times, MxPair=        42
 NAB=    21 NAA=     0 NBB=     0.
 DE(Corr)= -0.30656104     E(CORR)=     -78.344710209     Delta=-2.01D-03
 NORM(A)=   0.10633144D+01
 Iteration Nr.   4
 **********************
 DD1Dir will call FoFMem   1 times, MxPair=        42
 NAB=    21 NAA=     0 NBB=     0.
 DE(Corr)= -0.30739539     E(CORR)=     -78.345544562     Delta=-8.34D-04
 NORM(A)=   0.10637485D+01
 Iteration Nr.   5
 **********************
 DD1Dir will call FoFMem   1 times, MxPair=        42
 NAB=    21 NAA=     0 NBB=     0.
 DE(Corr)= -0.30748637     E(CORR)=     -78.345635538     Delta=-9.10D-05
 NORM(A)=   0.10637787D+01
 Iteration Nr.   6
 **********************
 DD1Dir will call FoFMem   1 times, MxPair=        42
 NAB=    21 NAA=     0 NBB=     0.
 DE(Corr)= -0.30748850     E(CORR)=     -78.345637670     Delta=-2.13D-06
 NORM(A)=   0.10637790D+01
 Iteration Nr.   7
 **********************
 DD1Dir will call FoFMem   1 times, MxPair=        42
 NAB=    21 NAA=     0 NBB=     0.
 DE(Corr)= -0.30748814     E(CORR)=     -78.345637309     Delta= 3.61D-07
 NORM(A)=   0.10637809D+01
 Iteration Nr.   8
 **********************
 DD1Dir will call FoFMem   1 times, MxPair=        42
 NAB=    21 NAA=     0 NBB=     0.
 DE(Corr)= -0.30748814     E(CORR)=     -78.345637310     Delta=-6.75D-10
 NORM(A)=   0.10637808D+01
 Iteration Nr.   9
 **********************
 DD1Dir will call FoFMem   1 times, MxPair=        42
 NAB=    21 NAA=     0 NBB=     0.
 DE(Corr)= -0.30748826     E(CORR)=     -78.345637429     Delta=-1.19D-07
 NORM(A)=   0.10637809D+01
 Iteration Nr.  10
 **********************
 DD1Dir will call FoFMem   1 times, MxPair=        42
 NAB=    21 NAA=     0 NBB=     0.
 DE(Corr)= -0.30748827     E(CORR)=     -78.345637446     Delta=-1.68D-08
 NORM(A)=   0.10637809D+01
 Iteration Nr.  11
 **********************
 DD1Dir will call FoFMem   1 times, MxPair=        42
 NAB=    21 NAA=     0 NBB=     0.
 DE(Corr)= -0.30748829     E(CORR)=     -78.345637466     Delta=-1.99D-08
 NORM(A)=   0.10637809D+01
 Iteration Nr.  12
 **********************
 DD1Dir will call FoFMem   1 times, MxPair=        42
 NAB=    21 NAA=     0 NBB=     0.
 DE(Corr)= -0.30748830     E(CORR)=     -78.345637473     Delta=-7.12D-09
 NORM(A)=   0.10637810D+01
 Dominant configurations:
 ***********************
 Spin Case        I    J    A    B          Value
   ABAB           8    8    9    9      -0.146596D+00
 Largest amplitude= 1.47D-01

 Z-AMPLITUDE ITERATIONS

 Iteration Nr.   1
 **********************
 DD1Dir will call FoFMem   1 times, MxPair=        42
 NAB=    21 NAA=     0 NBB=     0.
 DE(Z)  -0.29868381D+00          E(Z)=    -0.78336832984D+02
 NORM(A)=   0.10637848D+01
 Iteration Nr.   2
 **********************
 DD1Dir will call FoFMem   1 times, MxPair=        42
 NAB=    21 NAA=     0 NBB=     0.
 DE(Z)  -0.29868478D+00          E(Z)=    -0.78336833955D+02
 NORM(A)=   0.10637871D+01
 Iteration Nr.   3
 **********************
 DD1Dir will call FoFMem   1 times, MxPair=        42
 NAB=    21 NAA=     0 NBB=     0.
 DE(Z)  -0.29868528D+00          E(Z)=    -0.78336834448D+02
 NORM(A)=   0.10637781D+01
 Iteration Nr.   4
 **********************
 DD1Dir will call FoFMem   1 times, MxPair=        42
 NAB=    21 NAA=     0 NBB=     0.
 DE(Z)  -0.29868314D+00          E(Z)=    -0.78336832308D+02
 NORM(A)=   0.10637821D+01
 Iteration Nr.   5
 **********************
 DD1Dir will call FoFMem   1 times, MxPair=        42
 NAB=    21 NAA=     0 NBB=     0.
 DE(Z)  -0.29868408D+00          E(Z)=    -0.78336833249D+02
 NORM(A)=   0.10590779D+01
 Iteration Nr.   6
 **********************
 DD1Dir will call FoFMem   1 times, MxPair=        42
 NAB=    21 NAA=     0 NBB=     0.
 DE(Z)  -0.29751476D+00          E(Z)=    -0.78335663932D+02
 NORM(A)=   0.10590804D+01
 Iteration Nr.   7
 **********************
 DD1Dir will call FoFMem   1 times, MxPair=        42
 NAB=    21 NAA=     0 NBB=     0.
 DE(Z)  -0.29751367D+00          E(Z)=    -0.78335662847D+02
 NORM(A)=   0.10590799D+01
 Iteration Nr.   8
 **********************
 DD1Dir will call FoFMem   1 times, MxPair=        42
 NAB=    21 NAA=     0 NBB=     0.
 DE(Z)  -0.29751364D+00          E(Z)=    -0.78335662811D+02
 NORM(A)=   0.10590796D+01
 Iteration Nr.   9
 **********************
 DD1Dir will call FoFMem   1 times, MxPair=        42
 NAB=    21 NAA=     0 NBB=     0.
 DE(Z)  -0.29751355D+00          E(Z)=    -0.78335662719D+02
 NORM(A)=   0.10590793D+01
 Iteration Nr.  10
 **********************
 DD1Dir will call FoFMem   1 times, MxPair=        42
 NAB=    21 NAA=     0 NBB=     0.
 DE(Z)  -0.29751350D+00          E(Z)=    -0.78335662671D+02
 NORM(A)=   0.10590793D+01
 Iteration Nr.  11
 **********************
 DD1Dir will call FoFMem   1 times, MxPair=        42
 NAB=    21 NAA=     0 NBB=     0.
 DE(Z)  -0.29751350D+00          E(Z)=    -0.78335662669D+02
 NORM(A)=   0.10590793D+01
 Discarding MO integrals.
          IDoAtm=111111
          Differentiating once with respect to electric field.
                with respect to dipole field.
          Differentiating once with respect to nuclear coordinates.
 Keep R1 ints in memory in canonical form, NReq=1662452.
          There are     1 degrees of freedom in the 1st order CPHF.  IDoFFX=0 NUNeed=     1.
 LinEq1:  Iter=  0 NonCon=     1 RMS=5.28D-03 Max=7.83D-02 NDo=     1
 AX will form     1 AO Fock derivatives at one time.
 LinEq1:  Iter=  1 NonCon=     1 RMS=1.53D-03 Max=1.33D-02 NDo=     1
 LinEq1:  Iter=  2 NonCon=     1 RMS=2.58D-04 Max=2.57D-03 NDo=     1
 LinEq1:  Iter=  3 NonCon=     1 RMS=3.46D-05 Max=2.29D-04 NDo=     1
 LinEq1:  Iter=  4 NonCon=     1 RMS=3.37D-06 Max=2.34D-05 NDo=     1
 LinEq1:  Iter=  5 NonCon=     1 RMS=2.46D-07 Max=1.84D-06 NDo=     1
 LinEq1:  Iter=  6 NonCon=     1 RMS=2.02D-08 Max=1.34D-07 NDo=     1
 LinEq1:  Iter=  7 NonCon=     1 RMS=1.30D-09 Max=9.75D-09 NDo=     1
 LinEq1:  Iter=  8 NonCon=     0 RMS=8.05D-11 Max=4.15D-10 NDo=     1
 Linear equations converged to 1.000D-10 1.000D-09 after     8 iterations.
 End of Minotr F.D. properties file   721 does not exist.
 End of Minotr F.D. properties file   722 does not exist.
 End of Minotr F.D. properties file   788 does not exist.
 Calling FoFJK, ICntrl=  10002127 FMM=F ISym2X=0 I1Cent= 0 IOpClX= 0 NMat=1 NMatS=1 NMatT=0.
 ***** Axes restored to original set *****
 -------------------------------------------------------------------
 Center     Atomic                   Forces (Hartrees/Bohr)
 Number     Number              X              Y              Z
 -------------------------------------------------------------------
      1        6           0.002740589   -0.000241384    0.000000062
      2        6          -0.002740650    0.000241056   -0.000000086
      3        1          -0.000176484    0.000015678   -0.000195801
      4        1          -0.000176326    0.000015528    0.000195643
      5        1           0.000176356   -0.000015341   -0.000195617
      6        1           0.000176515   -0.000015536    0.000195799
 -------------------------------------------------------------------
 Cartesian Forces:  Max     0.002740650 RMS     0.000925474

 GradGradGradGradGradGradGradGradGradGradGradGradGradGradGradGradGradGrad
 Berny optimization.
 Using GEDIIS/GDIIS optimizer.
 FormGI is forming the generalized inverse of G from B-inverse, IUseBI=4.
 Internal  Forces:  Max     0.002397012 RMS     0.000633927
 Search for a local minimum.
 Step number   2 out of a maximum of   25
 All quantities printed in internal units (Hartrees-Bohrs-Radians)
 Mixed Optimization -- En-DIIS/RFO-DIIS
 Update second derivatives using D2CorX and points    1    2
 DE= -3.33D-04 DEPred=-3.71D-04 R= 8.97D-01
 TightC=F SS=  1.41D+00  RLast= 4.64D-02 DXNew= 5.0454D-01 1.3927D-01
 Trust test= 8.97D-01 RLast= 4.64D-02 DXMaxT set to 3.00D-01
 The second derivative matrix:
                          R1        R2        R3        R4        R5
           R1           0.67982
           R2          -0.01014   0.35218
           R3          -0.01013   0.00087   0.35218
           R4          -0.01013   0.00087   0.00087   0.35218
           R5          -0.01014   0.00087   0.00087   0.00087   0.35218
           A1           0.00100   0.00031   0.00031   0.00031   0.00031
           A2           0.00100   0.00031   0.00031   0.00031   0.00031
           A3          -0.00200  -0.00063  -0.00063  -0.00063  -0.00063
           A4           0.00100   0.00031   0.00031   0.00031   0.00031
           A5           0.00100   0.00031   0.00031   0.00031   0.00031
           A6          -0.00200  -0.00063  -0.00063  -0.00063  -0.00063
           D1           0.00000   0.00000   0.00000   0.00000   0.00000
           D2           0.00000   0.00000   0.00000   0.00000   0.00000
           D3           0.00000   0.00000   0.00000   0.00000   0.00000
           D4           0.00000   0.00000   0.00000   0.00000   0.00000
                          A1        A2        A3        A4        A5
           A1           0.15965
           A2          -0.00035   0.15965
           A3           0.00070   0.00070   0.15860
           A4          -0.00035  -0.00035   0.00070   0.15965
           A5          -0.00035  -0.00035   0.00070  -0.00035   0.15965
           A6           0.00070   0.00070  -0.00140   0.00070   0.00070
           D1           0.00000   0.00000   0.00000   0.00000   0.00000
           D2           0.00000   0.00000   0.00000   0.00000   0.00000
           D3           0.00000   0.00000   0.00000   0.00000   0.00000
           D4           0.00000   0.00000   0.00000   0.00000   0.00000
                          A6        D1        D2        D3        D4
           A6           0.15860
           D1           0.00000   0.03087
           D2           0.00000   0.00000   0.03087
           D3           0.00000   0.00000   0.00000   0.03087
           D4           0.00000   0.00000   0.00000   0.00000   0.03087
 ITU=  1  0
 Use linear search instead of GDIIS.
     Eigenvalues ---    0.03087   0.03087   0.03087   0.15575   0.16000
     Eigenvalues ---    0.16000   0.16000   0.35131   0.35131   0.35131
     Eigenvalues ---    0.35355   0.68110
 RFO step:  Lambda=-2.94565154D-06 EMin= 3.08730960D-02
 Quartic linear search produced a step of -0.08793.
 Iteration  1 RMS(Cart)=  0.00086642 RMS(Int)=  0.00000006
 Iteration  2 RMS(Cart)=  0.00000007 RMS(Int)=  0.00000000
 Variable       Old X    -DE/DX   Delta X   Delta X   Delta X     New X
                                 (Linear)    (Quad)   (Total)
    R1        2.52905  -0.00240  -0.00229  -0.00122  -0.00351   2.52554
    R2        2.04382   0.00026   0.00095  -0.00031   0.00065   2.04446
    R3        2.04382   0.00026   0.00095  -0.00031   0.00065   2.04446
    R4        2.04382   0.00026   0.00095  -0.00031   0.00065   2.04446
    R5        2.04382   0.00026   0.00095  -0.00031   0.00065   2.04446
    A1        2.12351   0.00003  -0.00081   0.00100   0.00020   2.12371
    A2        2.12351   0.00003  -0.00081   0.00100   0.00020   2.12371
    A3        2.03616  -0.00007   0.00161  -0.00200  -0.00039   2.03577
    A4        2.12351   0.00003  -0.00081   0.00100   0.00020   2.12371
    A5        2.12351   0.00003  -0.00081   0.00100   0.00020   2.12371
    A6        2.03616  -0.00007   0.00161  -0.00200  -0.00039   2.03577
    D1        0.00000   0.00000   0.00000   0.00000   0.00000   0.00000
    D2       -3.14159   0.00000   0.00000   0.00000   0.00000   3.14159
    D3        3.14159   0.00000   0.00000   0.00000   0.00000  -3.14159
    D4        0.00000   0.00000   0.00000   0.00000   0.00000   0.00000
         Item               Value     Threshold  Converged?
 Maximum Force            0.002397     0.000450     NO 
 RMS     Force            0.000634     0.000300     NO 
 Maximum Displacement     0.001749     0.001800     YES
 RMS     Displacement     0.000866     0.001200     YES
 Predicted change in Energy=-4.555733D-06
 GradGradGradGradGradGradGradGradGradGradGradGradGradGradGradGradGradGrad

                          Input orientation:                          
 ---------------------------------------------------------------------
 Center     Atomic      Atomic             Coordinates (Angstroms)
 Number     Number       Type             X           Y           Z
 ---------------------------------------------------------------------
      1          6           0       -7.656630    3.041793    0.000001
      2          6           0       -6.325320    2.924599   -0.000001
      3          1           0       -8.222581    3.091985   -0.920678
      4          1           0       -8.222644    3.091249    0.920681
      5          1           0       -5.759306    2.875145   -0.920681
      6          1           0       -5.759369    2.874408    0.920678
 ---------------------------------------------------------------------
                    Distance matrix (angstroms):
                    1          2          3          4          5
     1  C    0.000000
     2  C    1.336458   0.000000
     3  H    1.081882   2.115482   0.000000
     4  H    1.081882   2.115482   1.841360   0.000000
     5  H    2.115482   1.081882   2.472800   3.083074   0.000000
     6  H    2.115482   1.081882   3.083074   2.472800   1.841360
                    6
     6  H    0.000000
 Stoichiometry    C2H4
 Framework group  C1[X(C2H4)]
 Deg. of freedom    12
 Full point group                 C1      NOp   1
 Largest Abelian subgroup         C1      NOp   1
 Largest concise Abelian subgroup C1      NOp   1
                         Standard orientation:                         
 ---------------------------------------------------------------------
 Center     Atomic      Atomic             Coordinates (Angstroms)
 Number     Number       Type             X           Y           Z
 ---------------------------------------------------------------------
      1          6           0       -0.668229    0.000000    0.000000
      2          6           0        0.668229    0.000000    0.000000
      3          1           0       -1.236400    0.920680    0.000000
      4          1           0       -1.236400   -0.920680    0.000000
      5          1           0        1.236400    0.920680    0.000001
      6          1           0        1.236400   -0.920680    0.000000
 ---------------------------------------------------------------------
 Rotational constants (GHZ):    147.8954638     29.9407304     24.8998705
 Standard basis: 6-31G(d,p) (6D, 7F)
 There are    50 symmetry adapted cartesian basis functions of A   symmetry.
 There are    50 symmetry adapted basis functions of A   symmetry.
    50 basis functions,    84 primitive gaussians,    50 cartesian basis functions
     8 alpha electrons        8 beta electrons
       nuclear repulsion energy        33.3429335220 Hartrees.
 NAtoms=    6 NActive=    6 NUniq=    6 SFac= 1.00D+00 NAtFMM=   60 NAOKFM=F Big=F
 Integral buffers will be    131072 words long.
 Raffenetti 1 integral format.
 Two-electron integral symmetry is turned on.
 One-electron integrals computed using PRISM.
 NBasis=    50 RedAO= T EigKep=  7.07D-03  NBF=    50
 NBsUse=    50 1.00D-06 EigRej= -1.00D+00 NBFU=    50
 Initial guess from the checkpoint file:  "/scr/Gau-9284.chk"
 B after Tr=     0.000000    0.000000    0.000000
         Rot=    1.000000    0.000000    0.000000    0.000000 Ang=   0.00 deg.
 Keep R1 ints in memory in canonical form, NReq=1679770.
 Requested convergence on RMS density matrix=1.00D-08 within 128 cycles.
 Requested convergence on MAX density matrix=1.00D-06.
 Requested convergence on             energy=1.00D-06.
 No special actions if energy rises.
 SCF Done:  E(RHF) =  -78.0382361276     A.U. after    7 cycles
            NFock=  7  Conv=0.73D-09     -V/T= 2.0019
 ExpMin= 1.61D-01 ExpMax= 3.05D+03 ExpMxC= 4.57D+02 IAcc=3 IRadAn=         5 AccDes= 0.00D+00
 HarFok:  IExCor=  205 AccDes= 0.00D+00 IRadAn=         5 IDoV=-2 UseB2=F ITyADJ=14
 ICtDFT= 12500011 ScaDFX=  1.000000  1.000000  1.000000  1.000000
 Range of M.O.s used for correlation:     3    50
 NBasis=    50 NAE=     8 NBE=     8 NFC=     2 NFV=     0
 NROrb=     48 NOA=     6 NOB=     6 NVA=    42 NVB=    42
 Semi-Direct transformation.
 ModeAB=           2 MOrb=             6 LenV=      33351939
 LASXX=       297291 LTotXX=      297291 LenRXX=      297291
 LTotAB=      315756 MaxLAS=      367200 LenRXY=      367200
 NonZer=      594582 LenScr=     1571840 LnRSAI=           0
 LnScr1=           0 LExtra=           0 Total=      2236331
 MaxDsk=          -1 SrtSym=           F ITran=            4
 JobTyp=0 Pass  1:  I=   1 to   6.
 (rs|ai) integrals will be sorted in core.
 SymMOI:  orbitals are not symmetric.
 Spin components of T(2) and E(2):
     alpha-alpha T2 =       0.1041929616D-01 E2=     -0.2986555659D-01
     alpha-beta  T2 =       0.7611789596D-01 E2=     -0.2193058385D+00
     beta-beta   T2 =       0.1041929616D-01 E2=     -0.2986555659D-01
 ANorm=    0.1047356906D+01
 E2 =    -0.2790369517D+00 EUMP2 =    -0.78317273079356D+02
 Keep R2 and R3 ints in memory in canonical form, NReq=2448198.
 Iterations=  50 Convergence= 0.100D-07
 Iteration Nr.   1
 **********************
 DD1Dir will call FoFMem   1 times, MxPair=        42
 NAB=    21 NAA=     0 NBB=     0.
 MP4(R+Q)=  0.56733227D-02
 E3=       -0.23025945D-01        EUMP3=      -0.78340299024D+02
 E4(DQ)=   -0.19689292D-02        UMP4(DQ)=   -0.78342267953D+02
 E4(SDQ)=  -0.43392506D-02        UMP4(SDQ)=  -0.78344638275D+02
 DE(Corr)= -0.29626155     E(Corr)=     -78.334497677    
 NORM(A)=   0.10559297D+01
 Iteration Nr.   2
 **********************
 DD1Dir will call FoFMem   1 times, MxPair=        42
 NAB=    21 NAA=     0 NBB=     0.
 DE(Corr)= -0.30447128     E(CORR)=     -78.342707411     Delta=-8.21D-03
 NORM(A)=   0.10615910D+01
 Iteration Nr.   3
 **********************
 DD1Dir will call FoFMem   1 times, MxPair=        42
 NAB=    21 NAA=     0 NBB=     0.
 DE(Corr)= -0.30648372     E(CORR)=     -78.344719849     Delta=-2.01D-03
 NORM(A)=   0.10632323D+01
 Iteration Nr.   4
 **********************
 DD1Dir will call FoFMem   1 times, MxPair=        42
 NAB=    21 NAA=     0 NBB=     0.
 DE(Corr)= -0.30731404     E(CORR)=     -78.345550166     Delta=-8.30D-04
 NORM(A)=   0.10636625D+01
 Iteration Nr.   5
 **********************
 DD1Dir will call FoFMem   1 times, MxPair=        42
 NAB=    21 NAA=     0 NBB=     0.
 DE(Corr)= -0.30740442     E(CORR)=     -78.345640546     Delta=-9.04D-05
 NORM(A)=   0.10636925D+01
 Iteration Nr.   6
 **********************
 DD1Dir will call FoFMem   1 times, MxPair=        42
 NAB=    21 NAA=     0 NBB=     0.
 DE(Corr)= -0.30740655     E(CORR)=     -78.345642682     Delta=-2.14D-06
 NORM(A)=   0.10636928D+01
 Iteration Nr.   7
 **********************
 DD1Dir will call FoFMem   1 times, MxPair=        42
 NAB=    21 NAA=     0 NBB=     0.
 DE(Corr)= -0.30740619     E(CORR)=     -78.345642320     Delta= 3.62D-07
 NORM(A)=   0.10636947D+01
 Iteration Nr.   8
 **********************
 DD1Dir will call FoFMem   1 times, MxPair=        42
 NAB=    21 NAA=     0 NBB=     0.
 DE(Corr)= -0.30740619     E(CORR)=     -78.345642321     Delta=-1.17D-09
 NORM(A)=   0.10636946D+01
 Iteration Nr.   9
 **********************
 DD1Dir will call FoFMem   1 times, MxPair=        42
 NAB=    21 NAA=     0 NBB=     0.
 DE(Corr)= -0.30740631     E(CORR)=     -78.345642440     Delta=-1.19D-07
 NORM(A)=   0.10636947D+01
 Iteration Nr.  10
 **********************
 DD1Dir will call FoFMem   1 times, MxPair=        42
 NAB=    21 NAA=     0 NBB=     0.
 DE(Corr)= -0.30740633     E(CORR)=     -78.345642457     Delta=-1.69D-08
 NORM(A)=   0.10636947D+01
 Iteration Nr.  11
 **********************
 DD1Dir will call FoFMem   1 times, MxPair=        42
 NAB=    21 NAA=     0 NBB=     0.
 DE(Corr)= -0.30740635     E(CORR)=     -78.345642477     Delta=-1.99D-08
 NORM(A)=   0.10636947D+01
 Iteration Nr.  12
 **********************
 DD1Dir will call FoFMem   1 times, MxPair=        42
 NAB=    21 NAA=     0 NBB=     0.
 DE(Corr)= -0.30740636     E(CORR)=     -78.345642484     Delta=-7.06D-09
 NORM(A)=   0.10636947D+01
 Dominant configurations:
 ***********************
 Spin Case        I    J    A    B          Value
   ABAB           8    8    9    9      -0.146119D+00
 Largest amplitude= 1.46D-01

 Z-AMPLITUDE ITERATIONS

 Iteration Nr.   1
 **********************
 DD1Dir will call FoFMem   1 times, MxPair=        42
 NAB=    21 NAA=     0 NBB=     0.
 DE(Z)  -0.29862240D+00          E(Z)=    -0.78336858531D+02
 NORM(A)=   0.10637027D+01
 Iteration Nr.   2
 **********************
 DD1Dir will call FoFMem   1 times, MxPair=        42
 NAB=    21 NAA=     0 NBB=     0.
 DE(Z)  -0.29862443D+00          E(Z)=    -0.78336860558D+02
 NORM(A)=   0.10637340D+01
 Iteration Nr.   3
 **********************
 DD1Dir will call FoFMem   1 times, MxPair=        42
 NAB=    21 NAA=     0 NBB=     0.
 DE(Z)  -0.29863174D+00          E(Z)=    -0.78336867871D+02
 NORM(A)=   0.10636891D+01
 Iteration Nr.   4
 **********************
 DD1Dir will call FoFMem   1 times, MxPair=        42
 NAB=    21 NAA=     0 NBB=     0.
 DE(Z)  -0.29862105D+00          E(Z)=    -0.78336857179D+02
 NORM(A)=   0.10637178D+01
 Iteration Nr.   5
 **********************
 DD1Dir will call FoFMem   1 times, MxPair=        42
 NAB=    21 NAA=     0 NBB=     0.
 DE(Z)  -0.29862791D+00          E(Z)=    -0.78336864035D+02
 NORM(A)=   0.10585805D+01
 Iteration Nr.   6
 **********************
 DD1Dir will call FoFMem   1 times, MxPair=        42
 NAB=    21 NAA=     0 NBB=     0.
 DE(Z)  -0.29734907D+00          E(Z)=    -0.78335585197D+02
 NORM(A)=   0.10590125D+01
 Iteration Nr.   7
 **********************
 DD1Dir will call FoFMem   1 times, MxPair=        42
 NAB=    21 NAA=     0 NBB=     0.
 DE(Z)  -0.29745422D+00          E(Z)=    -0.78335690351D+02
 NORM(A)=   0.10590122D+01
 Iteration Nr.   8
 **********************
 DD1Dir will call FoFMem   1 times, MxPair=        42
 NAB=    21 NAA=     0 NBB=     0.
 DE(Z)  -0.29745415D+00          E(Z)=    -0.78335690273D+02
 NORM(A)=   0.10590121D+01
 Iteration Nr.   9
 **********************
 DD1Dir will call FoFMem   1 times, MxPair=        42
 NAB=    21 NAA=     0 NBB=     0.
 DE(Z)  -0.29745411D+00          E(Z)=    -0.78335690241D+02
 NORM(A)=   0.10590120D+01
 Iteration Nr.  10
 **********************
 DD1Dir will call FoFMem   1 times, MxPair=        42
 NAB=    21 NAA=     0 NBB=     0.
 DE(Z)  -0.29745410D+00          E(Z)=    -0.78335690231D+02
 NORM(A)=   0.10590120D+01
 Discarding MO integrals.
          IDoAtm=111111
          Differentiating once with respect to electric field.
                with respect to dipole field.
          Differentiating once with respect to nuclear coordinates.
 Keep R1 ints in memory in canonical form, NReq=1662452.
          There are     1 degrees of freedom in the 1st order CPHF.  IDoFFX=0 NUNeed=     1.
 LinEq1:  Iter=  0 NonCon=     1 RMS=5.27D-03 Max=7.80D-02 NDo=     1
 AX will form     1 AO Fock derivatives at one time.
 LinEq1:  Iter=  1 NonCon=     1 RMS=1.53D-03 Max=1.32D-02 NDo=     1
 LinEq1:  Iter=  2 NonCon=     1 RMS=2.58D-04 Max=2.57D-03 NDo=     1
 LinEq1:  Iter=  3 NonCon=     1 RMS=3.46D-05 Max=2.29D-04 NDo=     1
 LinEq1:  Iter=  4 NonCon=     1 RMS=3.36D-06 Max=2.33D-05 NDo=     1
 LinEq1:  Iter=  5 NonCon=     1 RMS=2.46D-07 Max=1.85D-06 NDo=     1
 LinEq1:  Iter=  6 NonCon=     1 RMS=2.02D-08 Max=1.34D-07 NDo=     1
 LinEq1:  Iter=  7 NonCon=     1 RMS=1.30D-09 Max=9.70D-09 NDo=     1
 LinEq1:  Iter=  8 NonCon=     0 RMS=8.03D-11 Max=4.11D-10 NDo=     1
 Linear equations converged to 1.000D-10 1.000D-09 after     8 iterations.
 End of Minotr F.D. properties file   721 does not exist.
 End of Minotr F.D. properties file   722 does not exist.
 End of Minotr F.D. properties file   788 does not exist.
 Calling FoFJK, ICntrl=  10002127 FMM=F ISym2X=0 I1Cent= 0 IOpClX= 0 NMat=1 NMatS=1 NMatT=0.
 ***** Axes restored to original set *****
 -------------------------------------------------------------------
 Center     Atomic                   Forces (Hartrees/Bohr)
 Number     Number              X              Y              Z
 -------------------------------------------------------------------
      1        6           0.000341853   -0.000030022   -0.000000004
      2        6          -0.000341856    0.000030173    0.000000006
      3        1          -0.000080991    0.000007092    0.000008320
      4        1          -0.000080991    0.000007094   -0.000008316
      5        1           0.000080994   -0.000007174    0.000008317
      6        1           0.000080991   -0.000007163   -0.000008322
 -------------------------------------------------------------------
 Cartesian Forces:  Max     0.000341856 RMS     0.000120706

 GradGradGradGradGradGradGradGradGradGradGradGradGradGradGradGradGradGrad
 Berny optimization.
 Using GEDIIS/GDIIS optimizer.
 FormGI is forming the generalized inverse of G from B-inverse, IUseBI=4.
 Internal  Forces:  Max     0.000180566 RMS     0.000067248
 Search for a local minimum.
 Step number   3 out of a maximum of   25
 All quantities printed in internal units (Hartrees-Bohrs-Radians)
 Mixed Optimization -- En-DIIS/RFO-DIIS
 Swapping is turned off.
 Update second derivatives using D2CorX and points    1    2    3
 DE= -5.01D-06 DEPred=-4.56D-06 R= 1.10D+00
 TightC=F SS=  1.41D+00  RLast= 3.80D-03 DXNew= 5.0454D-01 1.1406D-02
 Trust test= 1.10D+00 RLast= 3.80D-03 DXMaxT set to 3.00D-01
 The second derivative matrix:
                          R1        R2        R3        R4        R5
           R1           0.63961
           R2          -0.00026   0.35065
           R3          -0.00025  -0.00066   0.35065
           R4          -0.00025  -0.00066  -0.00066   0.35065
           R5          -0.00026  -0.00066  -0.00066  -0.00066   0.35065
           A1           0.01284  -0.00086  -0.00086  -0.00086  -0.00086
           A2           0.01285  -0.00086  -0.00086  -0.00086  -0.00086
           A3          -0.02569   0.00172   0.00172   0.00172   0.00172
           A4           0.01285  -0.00086  -0.00086  -0.00086  -0.00086
           A5           0.01284  -0.00086  -0.00086  -0.00086  -0.00086
           A6          -0.02569   0.00172   0.00172   0.00172   0.00172
           D1           0.00000   0.00000   0.00000   0.00000   0.00000
           D2           0.00002   0.00000   0.00000   0.00000   0.00000
           D3          -0.00002   0.00000   0.00000   0.00000   0.00000
           D4           0.00000   0.00000   0.00000   0.00000   0.00000
                          A1        A2        A3        A4        A5
           A1           0.15939
           A2          -0.00061   0.15939
           A3           0.00122   0.00122   0.15757
           A4          -0.00061  -0.00061   0.00122   0.15939
           A5          -0.00061  -0.00061   0.00122  -0.00061   0.15939
           A6           0.00122   0.00122  -0.00243   0.00122   0.00122
           D1           0.00000   0.00000   0.00000   0.00000   0.00000
           D2           0.00000   0.00000   0.00000   0.00000   0.00000
           D3           0.00000   0.00000   0.00000   0.00000   0.00000
           D4           0.00000   0.00000   0.00000   0.00000   0.00000
                          A6        D1        D2        D3        D4
           A6           0.15757
           D1           0.00000   0.03087
           D2           0.00000   0.00000   0.03087
           D3           0.00000   0.00000   0.00000   0.03087
           D4           0.00000   0.00000   0.00000   0.00000   0.03087
 ITU=  1  1  0
     Eigenvalues ---    0.03087   0.03087   0.03087   0.14850   0.16000
     Eigenvalues ---    0.16000   0.16000   0.34883   0.35131   0.35131
     Eigenvalues ---    0.35131   0.64365
 En-DIIS/RFO-DIIS IScMMF=        0 using points:     3    2
 RFO step:  Lambda=-1.35769543D-07.
 DidBck=F Rises=F RFO-DIIS coefs:    1.10141   -0.10141
 Iteration  1 RMS(Cart)=  0.00030848 RMS(Int)=  0.00000007
 Iteration  2 RMS(Cart)=  0.00000007 RMS(Int)=  0.00000000
 Variable       Old X    -DE/DX   Delta X   Delta X   Delta X     New X
                                 (Linear)    (Quad)   (Total)
    R1        2.52554  -0.00018  -0.00036  -0.00001  -0.00037   2.52517
    R2        2.04446   0.00004   0.00007   0.00005   0.00011   2.04457
    R3        2.04446   0.00004   0.00007   0.00005   0.00011   2.04457
    R4        2.04446   0.00004   0.00007   0.00005   0.00011   2.04457
    R5        2.04446   0.00004   0.00007   0.00005   0.00011   2.04457
    A1        2.12371   0.00005   0.00002   0.00034   0.00036   2.12407
    A2        2.12371   0.00005   0.00002   0.00034   0.00036   2.12407
    A3        2.03577  -0.00010  -0.00004  -0.00068  -0.00072   2.03504
    A4        2.12371   0.00005   0.00002   0.00034   0.00036   2.12407
    A5        2.12371   0.00005   0.00002   0.00034   0.00036   2.12407
    A6        2.03577  -0.00010  -0.00004  -0.00068  -0.00072   2.03504
    D1        0.00000   0.00000   0.00000   0.00000   0.00000   0.00000
    D2        3.14159   0.00000   0.00000   0.00000   0.00000  -3.14159
    D3       -3.14159   0.00000   0.00000   0.00000   0.00000   3.14159
    D4        0.00000   0.00000   0.00000   0.00000   0.00000   0.00000
         Item               Value     Threshold  Converged?
 Maximum Force            0.000181     0.000450     YES
 RMS     Force            0.000067     0.000300     YES
 Maximum Displacement     0.000502     0.001800     YES
 RMS     Displacement     0.000309     0.001200     YES
 Predicted change in Energy=-1.502168D-07
 Optimization completed.
    -- Stationary point found.
                           ----------------------------
                           !   Optimized Parameters   !
                           ! (Angstroms and Degrees)  !
 --------------------------                            --------------------------
 ! Name  Definition              Value          Derivative Info.                !
 --------------------------------------------------------------------------------
 ! R1    R(1,2)                  1.3365         -DE/DX =   -0.0002              !
 ! R2    R(1,3)                  1.0819         -DE/DX =    0.0                 !
 ! R3    R(1,4)                  1.0819         -DE/DX =    0.0                 !
 ! R4    R(2,5)                  1.0819         -DE/DX =    0.0                 !
 ! R5    R(2,6)                  1.0819         -DE/DX =    0.0                 !
 ! A1    A(2,1,3)              121.6796         -DE/DX =    0.0001              !
 ! A2    A(2,1,4)              121.6796         -DE/DX =    0.0001              !
 ! A3    A(3,1,4)              116.6408         -DE/DX =   -0.0001              !
 ! A4    A(1,2,5)              121.6796         -DE/DX =    0.0001              !
 ! A5    A(1,2,6)              121.6796         -DE/DX =    0.0001              !
 ! A6    A(5,2,6)              116.6408         -DE/DX =   -0.0001              !
 ! D1    D(3,1,2,5)              0.0            -DE/DX =    0.0                 !
 ! D2    D(3,1,2,6)           -180.0001         -DE/DX =    0.0                 !
 ! D3    D(4,1,2,5)            180.0001         -DE/DX =    0.0                 !
 ! D4    D(4,1,2,6)              0.0            -DE/DX =    0.0                 !
 --------------------------------------------------------------------------------
 GradGradGradGradGradGradGradGradGradGradGradGradGradGradGradGradGradGrad

                          Input orientation:                          
 ---------------------------------------------------------------------
 Center     Atomic      Atomic             Coordinates (Angstroms)
 Number     Number       Type             X           Y           Z
 ---------------------------------------------------------------------
      1          6           0       -7.656630    3.041793    0.000001
      2          6           0       -6.325320    2.924599   -0.000001
      3          1           0       -8.222581    3.091985   -0.920678
      4          1           0       -8.222644    3.091249    0.920681
      5          1           0       -5.759306    2.875145   -0.920681
      6          1           0       -5.759369    2.874408    0.920678
 ---------------------------------------------------------------------
                    Distance matrix (angstroms):
                    1          2          3          4          5
     1  C    0.000000
     2  C    1.336458   0.000000
     3  H    1.081882   2.115482   0.000000
     4  H    1.081882   2.115482   1.841360   0.000000
     5  H    2.115482   1.081882   2.472800   3.083074   0.000000
     6  H    2.115482   1.081882   3.083074   2.472800   1.841360
                    6
     6  H    0.000000
 Stoichiometry    C2H4
 Framework group  C1[X(C2H4)]
 Deg. of freedom    12
 Full point group                 C1      NOp   1
 Largest Abelian subgroup         C1      NOp   1
 Largest concise Abelian subgroup C1      NOp   1
                         Standard orientation:                         
 ---------------------------------------------------------------------
 Center     Atomic      Atomic             Coordinates (Angstroms)
 Number     Number       Type             X           Y           Z
 ---------------------------------------------------------------------
      1          6           0       -0.668229    0.000000    0.000000
      2          6           0        0.668229    0.000000    0.000000
      3          1           0       -1.236400    0.920680    0.000000
      4          1           0       -1.236400   -0.920680    0.000000
      5          1           0        1.236400    0.920680    0.000001
      6          1           0        1.236400   -0.920680    0.000000
 ---------------------------------------------------------------------
 Rotational constants (GHZ):    147.8954638     29.9407304     24.8998705

 **********************************************************************

            Population analysis using the SCF density.

 **********************************************************************

 Orbital symmetries:
       Occupied  (A) (A) (A) (A) (A) (A) (A) (A)
       Virtual   (A) (A) (A) (A) (A) (A) (A) (A) (A) (A) (A) (A)
                 (A) (A) (A) (A) (A) (A) (A) (A) (A) (A) (A) (A)
                 (A) (A) (A) (A) (A) (A) (A) (A) (A) (A) (A) (A)
                 (A) (A) (A) (A) (A) (A)
 The electronic state is 1-A.
 Alpha  occ. eigenvalues --  -11.22927 -11.22764  -1.02650  -0.78872  -0.63601
 Alpha  occ. eigenvalues --   -0.58102  -0.50201  -0.36989
 Alpha virt. eigenvalues --    0.17789   0.26498   0.29265   0.30806   0.39004
 Alpha virt. eigenvalues --    0.49099   0.66241   0.76081   0.77626   0.85134
 Alpha virt. eigenvalues --    0.88958   0.95099   1.08470   1.11836   1.17453
 Alpha virt. eigenvalues --    1.18254   1.32839   1.44150   1.65237   1.66257
 Alpha virt. eigenvalues --    1.80808   2.14424   2.20579   2.25375   2.34737
 Alpha virt. eigenvalues --    2.35263   2.43512   2.52348   2.68218   2.77001
 Alpha virt. eigenvalues --    2.84294   2.95130   3.01402   3.03046   3.09501
 Alpha virt. eigenvalues --    3.37412   3.54025   3.72225   3.86016   4.15532
 Alpha virt. eigenvalues --    4.59820   4.91034
          Condensed to atoms (all electrons):
               1          2          3          4          5          6
     1  C    4.880586   0.639410   0.408065   0.408065  -0.039622  -0.039622
     2  C    0.639410   4.880586  -0.039622  -0.039622   0.408065   0.408065
     3  H    0.408065  -0.039622   0.535682  -0.031450  -0.004219   0.003103
     4  H    0.408065  -0.039622  -0.031450   0.535682   0.003103  -0.004219
     5  H   -0.039622   0.408065  -0.004219   0.003103   0.535682  -0.031450
     6  H   -0.039622   0.408065   0.003103  -0.004219  -0.031450   0.535682
 Mulliken charges:
               1
     1  C   -0.256882
     2  C   -0.256882
     3  H    0.128441
     4  H    0.128441
     5  H    0.128441
     6  H    0.128441
 Sum of Mulliken charges =   0.00000
 Mulliken charges with hydrogens summed into heavy atoms:
               1
     1  C    0.000000
     2  C    0.000000
 Electronic spatial extent (au):  <R**2>=             82.5647
 Charge=              0.0000 electrons
 Dipole moment (field-independent basis, Debye):
    X=              0.0000    Y=              0.0000    Z=              0.0000  Tot=              0.0000
 Quadrupole moment (field-independent basis, Debye-Ang):
   XX=            -11.9885   YY=            -12.2312   ZZ=            -15.4392
   XY=              0.0000   XZ=              0.0000   YZ=              0.0000
 Traceless Quadrupole moment (field-independent basis, Debye-Ang):
   XX=              1.2311   YY=              0.9885   ZZ=             -2.2196
   XY=              0.0000   XZ=              0.0000   YZ=              0.0000
 Octapole moment (field-independent basis, Debye-Ang**2):
  XXX=              0.0000  YYY=              0.0000  ZZZ=              0.0000  XYY=              0.0000
  XXY=              0.0000  XXZ=              0.0000  XZZ=              0.0000  YZZ=              0.0000
  YYZ=              0.0000  XYZ=              0.0000
 Hexadecapole moment (field-independent basis, Debye-Ang**3):
 XXXX=            -66.8476 YYYY=            -26.0165 ZZZZ=            -16.5522 XXXY=              0.0000
 XXXZ=              0.0000 YYYX=              0.0000 YYYZ=              0.0000 ZZZX=              0.0000
 ZZZY=              0.0000 XXYY=            -12.9179 XXZZ=            -14.9145 YYZZ=             -7.7691
 XXYZ=              0.0000 YYXZ=              0.0000 ZZXY=              0.0000
 N-N= 3.334293352198D+01 E-N=-2.479267821472D+02  KE= 7.788657100284D+01
 1\1\GINC-N0286\FOpt\RCCSD-FC\6-31G(d,p)\C2H4\GDAVIDS3\21-Feb-2017\0\\#
 n CCSD/6-31G(d,p) Opt\\Ethene CCSD 6-31Gdp\\0,1\C,-7.6566300129,3.0417
 933872,0.0000006628\C,-6.3253200284,2.9245991121,-0.0000006589\H,-8.22
 25808006,3.0919853642,-0.9206784736\H,-8.2226438508,3.0912486509,0.920
 6809092\H,-5.7593061508,2.8751451534,-0.9206809384\H,-5.7593691565,2.8
 744083322,0.9206784908\\Version=ES64L-G09RevE.01\State=1-A\HF=-78.0382
 361\MP2=-78.3172731\MP3=-78.340299\MP4D=-78.3479413\MP4DQ=-78.342268\M
 P4SDQ=-78.3446383\CCSD=-78.3456425\RMSD=7.303e-10\RMSF=1.207e-04\Dipol
 e=0.,0.0000006,0.\PG=C01 [X(C2H4)]\\@


 ART, GLORY, FREEDOM FAIL, BUT NATURE STILL IS FAIR.

                                           -- BYRON
 Job cpu time:       0 days  0 hours  5 minutes 33.9 seconds.
 File lengths (MBytes):  RWF=     86 Int=      0 D2E=      0 Chk=      1 Scr=      1
 Normal termination of Gaussian 09 at Tue Feb 21 17:59:56 2017.
