 Entering Gaussian System, Link 0=g09
 Input=Ethene_CCSD_STO-3G.com
 Output=Ethene_CCSD_STO-3G.log
 Initial command:
 /sw/contrib/gaussian/g09/E01/g09/l1.exe "/scr/Gau-20427.inp" -scrdir="/scr/"
 Entering Link 1 = /sw/contrib/gaussian/g09/E01/g09/l1.exe PID=     20428.
  
 Copyright (c) 1988,1990,1992,1993,1995,1998,2003,2009,2015,
            Gaussian, Inc.  All Rights Reserved.
  
 This is part of the Gaussian(R) 09 program.  It is based on
 the Gaussian(R) 03 system (copyright 2003, Gaussian, Inc.),
 the Gaussian(R) 98 system (copyright 1998, Gaussian, Inc.),
 the Gaussian(R) 94 system (copyright 1995, Gaussian, Inc.),
 the Gaussian 92(TM) system (copyright 1992, Gaussian, Inc.),
 the Gaussian 90(TM) system (copyright 1990, Gaussian, Inc.),
 the Gaussian 88(TM) system (copyright 1988, Gaussian, Inc.),
 the Gaussian 86(TM) system (copyright 1986, Carnegie Mellon
 University), and the Gaussian 82(TM) system (copyright 1983,
 Carnegie Mellon University). Gaussian is a federally registered
 trademark of Gaussian, Inc.
  
 This software contains proprietary and confidential information,
 including trade secrets, belonging to Gaussian, Inc.
  
 This software is provided under written license and may be
 used, copied, transmitted, or stored only in accord with that
 written license.
  
 The following legend is applicable only to US Government
 contracts under FAR:
  
                    RESTRICTED RIGHTS LEGEND
  
 Use, reproduction and disclosure by the US Government is
 subject to restrictions as set forth in subparagraphs (a)
 and (c) of the Commercial Computer Software - Restricted
 Rights clause in FAR 52.227-19.
  
 Gaussian, Inc.
 340 Quinnipiac St., Bldg. 40, Wallingford CT 06492
  
  
 ---------------------------------------------------------------
 Warning -- This program may not be used in any manner that
 competes with the business of Gaussian, Inc. or will provide
 assistance to any competitor of Gaussian, Inc.  The licensee
 of this program is prohibited from giving any competitor of
 Gaussian, Inc. access to this program.  By using this program,
 the user acknowledges that Gaussian, Inc. is engaged in the
 business of creating and licensing software in the field of
 computational chemistry and represents and warrants to the
 licensee that it is not a competitor of Gaussian, Inc. and that
 it will not use this program in any manner prohibited above.
 ---------------------------------------------------------------
  

 Cite this work as:
 Gaussian 09, Revision E.01,
 M. J. Frisch, G. W. Trucks, H. B. Schlegel, G. E. Scuseria, 
 M. A. Robb, J. R. Cheeseman, G. Scalmani, V. Barone, B. Mennucci, 
 G. A. Petersson, H. Nakatsuji, M. Caricato, X. Li, H. P. Hratchian, 
 A. F. Izmaylov, J. Bloino, G. Zheng, J. L. Sonnenberg, M. Hada, 
 M. Ehara, K. Toyota, R. Fukuda, J. Hasegawa, M. Ishida, T. Nakajima, 
 Y. Honda, O. Kitao, H. Nakai, T. Vreven, J. A. Montgomery, Jr., 
 J. E. Peralta, F. Ogliaro, M. Bearpark, J. J. Heyd, E. Brothers, 
 K. N. Kudin, V. N. Staroverov, T. Keith, R. Kobayashi, J. Normand, 
 K. Raghavachari, A. Rendell, J. C. Burant, S. S. Iyengar, J. Tomasi, 
 M. Cossi, N. Rega, J. M. Millam, M. Klene, J. E. Knox, J. B. Cross, 
 V. Bakken, C. Adamo, J. Jaramillo, R. Gomperts, R. E. Stratmann, 
 O. Yazyev, A. J. Austin, R. Cammi, C. Pomelli, J. W. Ochterski, 
 R. L. Martin, K. Morokuma, V. G. Zakrzewski, G. A. Voth, 
 P. Salvador, J. J. Dannenberg, S. Dapprich, A. D. Daniels, 
 O. Farkas, J. B. Foresman, J. V. Ortiz, J. Cioslowski, 
 and D. J. Fox, Gaussian, Inc., Wallingford CT, 2013.
 
 ******************************************
 Gaussian 09:  ES64L-G09RevE.01 30-Nov-2015
                21-Feb-2017 
 ******************************************
 %NProcShared=8
 Will use up to    8 processors via shared memory.
 ------------------
 #n CCSD/STO-3G Opt
 ------------------
 1/18=20,19=15,38=1/1,3;
 2/9=110,12=2,17=6,18=5,40=1/2;
 3/6=3,11=9,16=1,25=1,30=1,71=1/1,2,3;
 4//1;
 5/5=2,38=5/2;
 8/6=4,9=120000,10=1/1,4;
 9/5=7,15=1/13;
 11/28=-8,29=200,42=3/11;
 10/5=6/2;
 6/7=2,8=2,9=2,10=2/1;
 7/12=7/1,2,3,16;
 1/18=20,19=15/3(2);
 2/9=110/2;
 99//99;
 2/9=110/2;
 3/6=3,11=9,16=1,25=1,30=1,71=1/1,2,3;
 4/5=5,16=3,69=1/1;
 5/5=2,38=5/2;
 8/6=4,9=120000,10=1/1,4;
 9/5=7,15=1/13;
 11/28=-8,29=200,42=3/11;
 10/5=6/2;
 7/12=7/1,2,3,16;
 1/18=20,19=15/3(-9);
 2/9=110/2;
 6/7=2,8=2,9=2,10=2/1;
 99//99;
 ------------------
 Ethene CCSD STO-3G
 ------------------
 Symbolic Z-matrix:
 Charge =  0 Multiplicity = 1
 C                    -7.65068   3.04127   0. 
 C                    -6.33127   2.92512   0. 
 H                    -8.2108    3.09095  -0.93056 
 H                    -8.21086   3.09021   0.93056 
 H                    -5.77109   2.87619  -0.93056 
 H                    -5.77115   2.87544   0.93056 
 

 GradGradGradGradGradGradGradGradGradGradGradGradGradGradGradGradGradGrad
 Berny optimization.
 Initialization pass.
                           ----------------------------
                           !    Initial Parameters    !
                           ! (Angstroms and Degrees)  !
 --------------------------                            --------------------------
 ! Name  Definition              Value          Derivative Info.                !
 --------------------------------------------------------------------------------
 ! R1    R(1,2)                  1.3245         estimate D2E/DX2                !
 ! R2    R(1,3)                  1.0873         estimate D2E/DX2                !
 ! R3    R(1,4)                  1.0873         estimate D2E/DX2                !
 ! R4    R(2,5)                  1.0873         estimate D2E/DX2                !
 ! R5    R(2,6)                  1.0873         estimate D2E/DX2                !
 ! A1    A(2,1,3)              121.1437         estimate D2E/DX2                !
 ! A2    A(2,1,4)              121.1435         estimate D2E/DX2                !
 ! A3    A(3,1,4)              117.7128         estimate D2E/DX2                !
 ! A4    A(1,2,5)              121.1435         estimate D2E/DX2                !
 ! A5    A(1,2,6)              121.1437         estimate D2E/DX2                !
 ! A6    A(5,2,6)              117.7128         estimate D2E/DX2                !
 ! D1    D(3,1,2,5)              0.0007         estimate D2E/DX2                !
 ! D2    D(3,1,2,6)            180.0            estimate D2E/DX2                !
 ! D3    D(4,1,2,5)           -179.9994         estimate D2E/DX2                !
 ! D4    D(4,1,2,6)             -0.0001         estimate D2E/DX2                !
 --------------------------------------------------------------------------------
 Trust Radius=3.00D-01 FncErr=1.00D-07 GrdErr=1.00D-07
 Number of steps in this run=     25 maximum allowed number of steps=    100.
 GradGradGradGradGradGradGradGradGradGradGradGradGradGradGradGradGradGrad

                          Input orientation:                          
 ---------------------------------------------------------------------
 Center     Atomic      Atomic             Coordinates (Angstroms)
 Number     Number       Type             X           Y           Z
 ---------------------------------------------------------------------
      1          6           0       -7.650680    3.041270    0.000000
      2          6           0       -6.331270    2.925120    0.000000
      3          1           0       -8.210800    3.090950   -0.930560
      4          1           0       -8.210860    3.090210    0.930560
      5          1           0       -5.771090    2.876190   -0.930560
      6          1           0       -5.771150    2.875440    0.930560
 ---------------------------------------------------------------------
                    Distance matrix (angstroms):
                    1          2          3          4          5
     1  C    0.000000
     2  C    1.324513   0.000000
     3  H    1.087265   2.103824   0.000000
     4  H    1.087262   2.103819   1.861120   0.000000
     5  H    2.103818   1.087262   2.449144   3.076045   0.000000
     6  H    2.103824   1.087265   3.076053   2.449145   1.861120
                    6
     6  H    0.000000
 Stoichiometry    C2H4
 Framework group  C1[X(C2H4)]
 Deg. of freedom    12
 Full point group                 C1      NOp   1
 Largest Abelian subgroup         C1      NOp   1
 Largest concise Abelian subgroup C1      NOp   1
                         Standard orientation:                         
 ---------------------------------------------------------------------
 Center     Atomic      Atomic             Coordinates (Angstroms)
 Number     Number       Type             X           Y           Z
 ---------------------------------------------------------------------
      1          6           0       -0.662256   -0.000001    0.000000
      2          6           0        0.662256    0.000001   -0.000002
      3          1           0       -1.224576    0.930558   -0.000002
      4          1           0       -1.224569   -0.930562    0.000003
      5          1           0        1.224568    0.930562    0.000006
      6          1           0        1.224576   -0.930558    0.000001
 ---------------------------------------------------------------------
 Rotational constants (GHZ):    144.7715521     30.4973425     25.1907084
 Standard basis: STO-3G (5D, 7F)
 There are    14 symmetry adapted cartesian basis functions of A   symmetry.
 There are    14 symmetry adapted basis functions of A   symmetry.
    14 basis functions,    42 primitive gaussians,    14 cartesian basis functions
     8 alpha electrons        8 beta electrons
       nuclear repulsion energy        33.4454879269 Hartrees.
 NAtoms=    6 NActive=    6 NUniq=    6 SFac= 1.00D+00 NAtFMM=   60 NAOKFM=F Big=F
 Integral buffers will be    131072 words long.
 Raffenetti 1 integral format.
 Two-electron integral symmetry is turned on.
 One-electron integrals computed using PRISM.
 NBasis=    14 RedAO= T EigKep=  1.86D-01  NBF=    14
 NBsUse=    14 1.00D-06 EigRej= -1.00D+00 NBFU=    14
 ExpMin= 1.69D-01 ExpMax= 7.16D+01 ExpMxC= 7.16D+01 IAcc=1 IRadAn=         1 AccDes= 0.00D+00
 Harris functional with IExCor=  205 and IRadAn=       1 diagonalized for initial guess.
 HarFok:  IExCor=  205 AccDes= 0.00D+00 IRadAn=         1 IDoV= 1 UseB2=F ITyADJ=14
 ICtDFT=  3500011 ScaDFX=  1.000000  1.000000  1.000000  1.000000
 FoFCou: FMM=F IPFlag=           0 FMFlag=      100000 FMFlg1=           0
         NFxFlg=           0 DoJE=T BraDBF=F KetDBF=T FulRan=T
         wScrn=  0.000000 ICntrl=     500 IOpCl=  0 I1Cent=   200000004 NGrid=           0
         NMat0=    1 NMatS0=      1 NMatT0=    0 NMatD0=    1 NMtDS0=    0 NMtDT0=    0
 Petite list used in FoFCou.
 Keep R1 ints in memory in canonical form, NReq=831627.
 Requested convergence on RMS density matrix=1.00D-08 within 128 cycles.
 Requested convergence on MAX density matrix=1.00D-06.
 Requested convergence on             energy=1.00D-06.
 No special actions if energy rises.
 SCF Done:  E(RHF) =  -77.0730974662     A.U. after    7 cycles
            NFock=  7  Conv=0.48D-08     -V/T= 2.0064
 ExpMin= 1.69D-01 ExpMax= 7.16D+01 ExpMxC= 7.16D+01 IAcc=3 IRadAn=         5 AccDes= 0.00D+00
 HarFok:  IExCor=  205 AccDes= 0.00D+00 IRadAn=         5 IDoV=-2 UseB2=F ITyADJ=14
 ICtDFT= 12500011 ScaDFX=  1.000000  1.000000  1.000000  1.000000
 Range of M.O.s used for correlation:     3    14
 NBasis=    14 NAE=     8 NBE=     8 NFC=     2 NFV=     0
 NROrb=     12 NOA=     6 NOB=     6 NVA=     6 NVB=     6
 Semi-Direct transformation.
 ModeAB=           2 MOrb=             6 LenV=      33443067
 LASXX=         2721 LTotXX=        2721 LenRXX=        2721
 LTotAB=        3690 MaxLAS=        7560 LenRXY=        7560
 NonZer=        8424 LenScr=      785920 LnRSAI=           0
 LnScr1=           0 LExtra=           0 Total=       796201
 MaxDsk=          -1 SrtSym=           F ITran=            4
 JobTyp=0 Pass  1:  I=   1 to   6.
 (rs|ai) integrals will be sorted in core.
 SymMOI:  orbitals are not symmetric.
 Spin components of T(2) and E(2):
     alpha-alpha T2 =       0.3280820912D-02 E2=     -0.7809296238D-02
     alpha-beta  T2 =       0.4969714526D-01 E2=     -0.1056465083D+00
     beta-beta   T2 =       0.3280820912D-02 E2=     -0.7809296238D-02
 ANorm=    0.1027744514D+01
 E2 =    -0.1212651008D+00 EUMP2 =    -0.77194362566959D+02
 Keep R2 and R3 ints in memory in canonical form, NReq=812344.
 Iterations=  50 Convergence= 0.100D-07
 Iteration Nr.   1
 **********************
 DD1Dir will call FoFMem   1 times, MxPair=        42
 NAB=    21 NAA=     0 NBB=     0.
 MP4(R+Q)=  0.12776479D-02
 E3=       -0.24555012D-01        EUMP3=      -0.77218917579D+02
 E4(DQ)=   -0.81396380D-02        UMP4(DQ)=   -0.77227057217D+02
 E4(SDQ)=  -0.82073935D-02        UMP4(SDQ)=  -0.77227124973D+02
 DE(Corr)= -0.14454251     E(Corr)=     -77.217639975    
 NORM(A)=   0.10448037D+01
 Iteration Nr.   2
 **********************
 DD1Dir will call FoFMem   1 times, MxPair=        42
 NAB=    21 NAA=     0 NBB=     0.
 DE(Corr)= -0.15459170     E(CORR)=     -77.227689170     Delta=-1.00D-02
 NORM(A)=   0.10530247D+01
 Iteration Nr.   3
 **********************
 DD1Dir will call FoFMem   1 times, MxPair=        42
 NAB=    21 NAA=     0 NBB=     0.
 DE(Corr)= -0.15876126     E(CORR)=     -77.231858728     Delta=-4.17D-03
 NORM(A)=   0.10547734D+01
 Iteration Nr.   4
 **********************
 DD1Dir will call FoFMem   1 times, MxPair=        42
 NAB=    21 NAA=     0 NBB=     0.
 DE(Corr)= -0.15946226     E(CORR)=     -77.232559728     Delta=-7.01D-04
 NORM(A)=   0.10550583D+01
 Iteration Nr.   5
 **********************
 DD1Dir will call FoFMem   1 times, MxPair=        42
 NAB=    21 NAA=     0 NBB=     0.
 DE(Corr)= -0.15952392     E(CORR)=     -77.232621388     Delta=-6.17D-05
 NORM(A)=   0.10550655D+01
 Iteration Nr.   6
 **********************
 DD1Dir will call FoFMem   1 times, MxPair=        42
 NAB=    21 NAA=     0 NBB=     0.
 DE(Corr)= -0.15952203     E(CORR)=     -77.232619495     Delta= 1.89D-06
 NORM(A)=   0.10550669D+01
 Iteration Nr.   7
 **********************
 DD1Dir will call FoFMem   1 times, MxPair=        42
 NAB=    21 NAA=     0 NBB=     0.
 DE(Corr)= -0.15952227     E(CORR)=     -77.232619737     Delta=-2.42D-07
 NORM(A)=   0.10550671D+01
 Iteration Nr.   8
 **********************
 DD1Dir will call FoFMem   1 times, MxPair=        42
 NAB=    21 NAA=     0 NBB=     0.
 DE(Corr)= -0.15952236     E(CORR)=     -77.232619826     Delta=-8.88D-08
 NORM(A)=   0.10550669D+01
 Iteration Nr.   9
 **********************
 DD1Dir will call FoFMem   1 times, MxPair=        42
 NAB=    21 NAA=     0 NBB=     0.
 DE(Corr)= -0.15952233     E(CORR)=     -77.232619797     Delta= 2.90D-08
 NORM(A)=   0.10550669D+01
 Iteration Nr.  10
 **********************
 DD1Dir will call FoFMem   1 times, MxPair=        42
 NAB=    21 NAA=     0 NBB=     0.
 DE(Corr)= -0.15952233     E(CORR)=     -77.232619797     Delta= 6.26D-11
 NORM(A)=   0.10550669D+01
 Dominant configurations:
 ***********************
 Spin Case        I    J    A    B          Value
   ABAB           8    8    9    9      -0.219220D+00
 Largest amplitude= 2.19D-01

 Z-AMPLITUDE ITERATIONS

 Iteration Nr.   1
 **********************
 DD1Dir will call FoFMem   1 times, MxPair=        42
 NAB=    21 NAA=     0 NBB=     0.
 DE(Z)  -0.15565228D+00          E(Z)=    -0.77228749742D+02
 NORM(A)=   0.10550677D+01
 Iteration Nr.   2
 **********************
 DD1Dir will call FoFMem   1 times, MxPair=        42
 NAB=    21 NAA=     0 NBB=     0.
 DE(Z)  -0.15565249D+00          E(Z)=    -0.77228749952D+02
 NORM(A)=   0.10550681D+01
 Iteration Nr.   3
 **********************
 DD1Dir will call FoFMem   1 times, MxPair=        42
 NAB=    21 NAA=     0 NBB=     0.
 DE(Z)  -0.15565254D+00          E(Z)=    -0.77228750008D+02
 NORM(A)=   0.10550729D+01
 Iteration Nr.   4
 **********************
 DD1Dir will call FoFMem   1 times, MxPair=        42
 NAB=    21 NAA=     0 NBB=     0.
 DE(Z)  -0.15565358D+00          E(Z)=    -0.77228751048D+02
 NORM(A)=   0.10550791D+01
 Iteration Nr.   5
 **********************
 DD1Dir will call FoFMem   1 times, MxPair=        42
 NAB=    21 NAA=     0 NBB=     0.
 DE(Z)  -0.15565493D+00          E(Z)=    -0.77228752391D+02
 NORM(A)=   0.10513076D+01
 Iteration Nr.   6
 **********************
 DD1Dir will call FoFMem   1 times, MxPair=        42
 NAB=    21 NAA=     0 NBB=     0.
 DE(Z)  -0.15481229D+00          E(Z)=    -0.77227909759D+02
 NORM(A)=   0.10513073D+01
 Iteration Nr.   7
 **********************
 DD1Dir will call FoFMem   1 times, MxPair=        42
 NAB=    21 NAA=     0 NBB=     0.
 DE(Z)  -0.15481223D+00          E(Z)=    -0.77227909694D+02
 NORM(A)=   0.10513072D+01
 Iteration Nr.   8
 **********************
 DD1Dir will call FoFMem   1 times, MxPair=        42
 NAB=    21 NAA=     0 NBB=     0.
 DE(Z)  -0.15481221D+00          E(Z)=    -0.77227909679D+02
 NORM(A)=   0.10513072D+01
 Iteration Nr.   9
 **********************
 DD1Dir will call FoFMem   1 times, MxPair=        42
 NAB=    21 NAA=     0 NBB=     0.
 DE(Z)  -0.15481221D+00          E(Z)=    -0.77227909675D+02
 NORM(A)=   0.10513072D+01
 Discarding MO integrals.
          IDoAtm=111111
          Differentiating once with respect to electric field.
                with respect to dipole field.
          Differentiating once with respect to nuclear coordinates.
 Keep R1 ints in memory in canonical form, NReq=814237.
          There are     1 degrees of freedom in the 1st order CPHF.  IDoFFX=0 NUNeed=     1.
 LinEq1:  Iter=  0 NonCon=     1 RMS=1.86D-03 Max=7.25D-03 NDo=     1
 AX will form     1 AO Fock derivatives at one time.
 LinEq1:  Iter=  1 NonCon=     1 RMS=1.69D-04 Max=9.30D-04 NDo=     1
 LinEq1:  Iter=  2 NonCon=     1 RMS=1.48D-05 Max=8.22D-05 NDo=     1
 LinEq1:  Iter=  3 NonCon=     1 RMS=5.24D-07 Max=1.95D-06 NDo=     1
 LinEq1:  Iter=  4 NonCon=     1 RMS=3.05D-08 Max=1.47D-07 NDo=     1
 LinEq1:  Iter=  5 NonCon=     1 RMS=2.63D-09 Max=1.11D-08 NDo=     1
 LinEq1:  Iter=  6 NonCon=     1 RMS=1.82D-10 Max=7.89D-10 NDo=     1
 LinEq1:  Iter=  7 NonCon=     0 RMS=8.31D-11 Max=3.62D-10 NDo=     1
 Linear equations converged to 1.000D-10 1.000D-09 after     7 iterations.
 End of Minotr F.D. properties file   721 does not exist.
 End of Minotr F.D. properties file   722 does not exist.
 End of Minotr F.D. properties file   788 does not exist.

 **********************************************************************

            Population analysis using the SCF density.

 **********************************************************************

 Orbital symmetries:
       Occupied  (A) (A) (A) (A) (A) (A) (A) (A)
       Virtual   (A) (A) (A) (A) (A) (A)
 The electronic state is 1-A.
 Alpha  occ. eigenvalues --  -11.02003 -11.01914  -0.98076  -0.74168  -0.60391
 Alpha  occ. eigenvalues --   -0.53024  -0.46058  -0.32805
 Alpha virt. eigenvalues --    0.32272   0.62691   0.68432   0.69189   0.94285
 Alpha virt. eigenvalues --    0.99846
          Condensed to atoms (all electrons):
               1          2          3          4          5          6
     1  C    4.788586   0.604142   0.392018   0.392018  -0.025986  -0.025986
     2  C    0.604142   4.788586  -0.025986  -0.025986   0.392018   0.392018
     3  H    0.392018  -0.025986   0.597662  -0.023216  -0.004894   0.002018
     4  H    0.392018  -0.025986  -0.023216   0.597662   0.002018  -0.004894
     5  H   -0.025986   0.392018  -0.004894   0.002018   0.597662  -0.023216
     6  H   -0.025986   0.392018   0.002018  -0.004894  -0.023216   0.597662
 Mulliken charges:
               1
     1  C   -0.124793
     2  C   -0.124793
     3  H    0.062396
     4  H    0.062397
     5  H    0.062397
     6  H    0.062396
 Sum of Mulliken charges =   0.00000
 Mulliken charges with hydrogens summed into heavy atoms:
               1
     1  C    0.000000
     2  C    0.000000
 Electronic spatial extent (au):  <R**2>=             80.2887
 Charge=              0.0000 electrons
 Dipole moment (field-independent basis, Debye):
    X=              0.0000    Y=              0.0000    Z=              0.0000  Tot=              0.0000
 Quadrupole moment (field-independent basis, Debye-Ang):
   XX=            -12.0157   YY=            -11.7697   ZZ=            -13.4781
   XY=              0.0000   XZ=              0.0000   YZ=              0.0000
 Traceless Quadrupole moment (field-independent basis, Debye-Ang):
   XX=              0.4054   YY=              0.6515   ZZ=             -1.0569
   XY=              0.0000   XZ=              0.0000   YZ=              0.0000
 Octapole moment (field-independent basis, Debye-Ang**2):
  XXX=              0.0000  YYY=              0.0000  ZZZ=              0.0000  XYY=              0.0000
  XXY=              0.0000  XXZ=              0.0000  XZZ=              0.0000  YZZ=              0.0000
  YYZ=              0.0000  XYZ=              0.0000
 Hexadecapole moment (field-independent basis, Debye-Ang**3):
 XXXX=            -63.2247 YYYY=            -24.0896 ZZZZ=            -10.8919 XXXY=             -0.0001
 XXXZ=              0.0000 YYYX=              0.0000 YYYZ=              0.0000 ZZZX=              0.0000
 ZZZY=              0.0000 XXYY=            -12.3341 XXZZ=            -12.7932 YYZZ=             -6.3601
 XXYZ=              0.0000 YYXZ=              0.0000 ZZXY=              0.0000
 N-N= 3.344548792691D+01 E-N=-2.462484130765D+02  KE= 7.658001772306D+01
 Calling FoFJK, ICntrl=  10002127 FMM=F ISym2X=0 I1Cent= 0 IOpClX= 0 NMat=1 NMatS=1 NMatT=0.
 ***** Axes restored to original set *****
 -------------------------------------------------------------------
 Center     Atomic                   Forces (Hartrees/Bohr)
 Number     Number              X              Y              Z
 -------------------------------------------------------------------
      1        6          -0.022044308    0.001940333   -0.000001150
      2        6           0.022044064   -0.001939806    0.000001475
      3        1          -0.010553175    0.000933746   -0.011261168
      4        1          -0.010555571    0.000924461    0.011263053
      5        1           0.010555776   -0.000925148   -0.011263346
      6        1           0.010553214   -0.000933587    0.011261136
 -------------------------------------------------------------------
 Cartesian Forces:  Max     0.022044308 RMS     0.010370377

 GradGradGradGradGradGradGradGradGradGradGradGradGradGradGradGradGradGrad
 Berny optimization.
 FormGI is forming the generalized inverse of G from B-inverse, IUseBI=4.
 Internal  Forces:  Max     0.043319915 RMS     0.013784374
 Search for a local minimum.
 Step number   1 out of a maximum of   25
 All quantities printed in internal units (Hartrees-Bohrs-Radians)
 Mixed Optimization -- RFO/linear search
 Second derivative matrix not updated -- first step.
 The second derivative matrix:
                          R1        R2        R3        R4        R5
           R1           0.60821
           R2           0.00000   0.35131
           R3           0.00000   0.00000   0.35131
           R4           0.00000   0.00000   0.00000   0.35131
           R5           0.00000   0.00000   0.00000   0.00000   0.35131
           A1           0.00000   0.00000   0.00000   0.00000   0.00000
           A2           0.00000   0.00000   0.00000   0.00000   0.00000
           A3           0.00000   0.00000   0.00000   0.00000   0.00000
           A4           0.00000   0.00000   0.00000   0.00000   0.00000
           A5           0.00000   0.00000   0.00000   0.00000   0.00000
           A6           0.00000   0.00000   0.00000   0.00000   0.00000
           D1           0.00000   0.00000   0.00000   0.00000   0.00000
           D2           0.00000   0.00000   0.00000   0.00000   0.00000
           D3           0.00000   0.00000   0.00000   0.00000   0.00000
           D4           0.00000   0.00000   0.00000   0.00000   0.00000
                          A1        A2        A3        A4        A5
           A1           0.16000
           A2           0.00000   0.16000
           A3           0.00000   0.00000   0.16000
           A4           0.00000   0.00000   0.00000   0.16000
           A5           0.00000   0.00000   0.00000   0.00000   0.16000
           A6           0.00000   0.00000   0.00000   0.00000   0.00000
           D1           0.00000   0.00000   0.00000   0.00000   0.00000
           D2           0.00000   0.00000   0.00000   0.00000   0.00000
           D3           0.00000   0.00000   0.00000   0.00000   0.00000
           D4           0.00000   0.00000   0.00000   0.00000   0.00000
                          A6        D1        D2        D3        D4
           A6           0.16000
           D1           0.00000   0.03087
           D2           0.00000   0.00000   0.03087
           D3           0.00000   0.00000   0.00000   0.03087
           D4           0.00000   0.00000   0.00000   0.00000   0.03087
 ITU=  0
     Eigenvalues ---    0.03087   0.03087   0.03087   0.16000   0.16000
     Eigenvalues ---    0.16000   0.16000   0.35131   0.35131   0.35131
     Eigenvalues ---    0.35131   0.60821
 RFO step:  Lambda=-5.97134845D-03 EMin= 3.08730960D-02
 Linear search not attempted -- first point.
 Iteration  1 RMS(Cart)=  0.04506670 RMS(Int)=  0.00025954
 Iteration  2 RMS(Cart)=  0.00030774 RMS(Int)=  0.00000004
 Iteration  3 RMS(Cart)=  0.00000005 RMS(Int)=  0.00000000
 Variable       Old X    -DE/DX   Delta X   Delta X   Delta X     New X
                                 (Linear)    (Quad)   (Total)
    R1        2.50297   0.04332   0.00000   0.07053   0.07053   2.57350
    R2        2.05463   0.01512   0.00000   0.04231   0.04231   2.09695
    R3        2.05463   0.01512   0.00000   0.04232   0.04232   2.09695
    R4        2.05463   0.01512   0.00000   0.04232   0.04232   2.09695
    R5        2.05463   0.01512   0.00000   0.04231   0.04231   2.09695
    A1        2.11436   0.00222   0.00000   0.01338   0.01338   2.12774
    A2        2.11435   0.00222   0.00000   0.01339   0.01339   2.12774
    A3        2.05448  -0.00444   0.00000  -0.02677  -0.02677   2.02771
    A4        2.11435   0.00222   0.00000   0.01339   0.01339   2.12774
    A5        2.11436   0.00222   0.00000   0.01338   0.01338   2.12774
    A6        2.05448  -0.00444   0.00000  -0.02677  -0.02677   2.02771
    D1        0.00001   0.00000   0.00000  -0.00001  -0.00001   0.00000
    D2        3.14159   0.00000   0.00000   0.00000   0.00000  -3.14159
    D3       -3.14158   0.00000   0.00000  -0.00001  -0.00001   3.14159
    D4        0.00000   0.00000   0.00000   0.00000   0.00000   0.00000
         Item               Value     Threshold  Converged?
 Maximum Force            0.043320     0.000450     NO 
 RMS     Force            0.013784     0.000300     NO 
 Maximum Displacement     0.080768     0.001800     NO 
 RMS     Displacement     0.045193     0.001200     NO 
 Predicted change in Energy=-3.028332D-03
 GradGradGradGradGradGradGradGradGradGradGradGradGradGradGradGradGradGrad

                          Input orientation:                          
 ---------------------------------------------------------------------
 Center     Atomic      Atomic             Coordinates (Angstroms)
 Number     Number       Type             X           Y           Z
 ---------------------------------------------------------------------
      1          6           0       -7.669270    3.042907    0.000001
      2          6           0       -6.312679    2.923488   -0.000001
      3          1           0       -8.253535    3.094718   -0.941958
      4          1           0       -8.253601    3.093964    0.941961
      5          1           0       -5.728349    2.872428   -0.941961
      6          1           0       -5.728415    2.871674    0.941958
 ---------------------------------------------------------------------
                    Distance matrix (angstroms):
                    1          2          3          4          5
     1  C    0.000000
     2  C    1.361837   0.000000
     3  H    1.109656   2.164145   0.000000
     4  H    1.109656   2.164146   1.883918   0.000000
     5  H    2.164146   1.109656   2.534951   3.158344   0.000000
     6  H    2.164145   1.109656   3.158341   2.534951   1.883919
                    6
     6  H    0.000000
 Stoichiometry    C2H4
 Framework group  C1[X(C2H4)]
 Deg. of freedom    12
 Full point group                 C1      NOp   1
 Largest Abelian subgroup         C1      NOp   1
 Largest concise Abelian subgroup C1      NOp   1
                         Standard orientation:                         
 ---------------------------------------------------------------------
 Center     Atomic      Atomic             Coordinates (Angstroms)
 Number     Number       Type             X           Y           Z
 ---------------------------------------------------------------------
      1          6           0       -0.680919    0.000000    0.000000
      2          6           0        0.680919    0.000000    0.000000
      3          1           0       -1.267475    0.941960   -0.000001
      4          1           0       -1.267477   -0.941959   -0.000001
      5          1           0        1.267477    0.941959   -0.000001
      6          1           0        1.267474   -0.941960   -0.000001
 ---------------------------------------------------------------------
 Rotational constants (GHZ):    141.2888304     28.7084164     23.8602604
 Standard basis: STO-3G (5D, 7F)
 There are    14 symmetry adapted cartesian basis functions of A   symmetry.
 There are    14 symmetry adapted basis functions of A   symmetry.
    14 basis functions,    42 primitive gaussians,    14 cartesian basis functions
     8 alpha electrons        8 beta electrons
       nuclear repulsion energy        32.6168224128 Hartrees.
 NAtoms=    6 NActive=    6 NUniq=    6 SFac= 1.00D+00 NAtFMM=   60 NAOKFM=F Big=F
 Integral buffers will be    131072 words long.
 Raffenetti 1 integral format.
 Two-electron integral symmetry is turned on.
 One-electron integrals computed using PRISM.
 NBasis=    14 RedAO= T EigKep=  2.06D-01  NBF=    14
 NBsUse=    14 1.00D-06 EigRej= -1.00D+00 NBFU=    14
 Initial guess from the checkpoint file:  "/scr/Gau-20428.chk"
 B after Tr=     0.000000    0.000000    0.000000
         Rot=    1.000000    0.000000    0.000000    0.000001 Ang=   0.00 deg.
 ExpMin= 1.69D-01 ExpMax= 7.16D+01 ExpMxC= 7.16D+01 IAcc=1 IRadAn=         1 AccDes= 0.00D+00
 Harris functional with IExCor=  205 and IRadAn=       1 diagonalized for initial guess.
 HarFok:  IExCor=  205 AccDes= 0.00D+00 IRadAn=         1 IDoV= 1 UseB2=F ITyADJ=14
 ICtDFT=  3500011 ScaDFX=  1.000000  1.000000  1.000000  1.000000
 FoFCou: FMM=F IPFlag=           0 FMFlag=      100000 FMFlg1=           0
         NFxFlg=           0 DoJE=T BraDBF=F KetDBF=T FulRan=T
         wScrn=  0.000000 ICntrl=     500 IOpCl=  0 I1Cent=   200000004 NGrid=           0
         NMat0=    1 NMatS0=      1 NMatT0=    0 NMatD0=    1 NMtDS0=    0 NMtDT0=    0
 Petite list used in FoFCou.
 Keep R1 ints in memory in canonical form, NReq=831627.
 Requested convergence on RMS density matrix=1.00D-08 within 128 cycles.
 Requested convergence on MAX density matrix=1.00D-06.
 Requested convergence on             energy=1.00D-06.
 No special actions if energy rises.
 SCF Done:  E(RHF) =  -77.0667879796     A.U. after    7 cycles
            NFock=  7  Conv=0.15D-08     -V/T= 2.0081
 ExpMin= 1.69D-01 ExpMax= 7.16D+01 ExpMxC= 7.16D+01 IAcc=3 IRadAn=         5 AccDes= 0.00D+00
 HarFok:  IExCor=  205 AccDes= 0.00D+00 IRadAn=         5 IDoV=-2 UseB2=F ITyADJ=14
 ICtDFT= 12500011 ScaDFX=  1.000000  1.000000  1.000000  1.000000
 Range of M.O.s used for correlation:     3    14
 NBasis=    14 NAE=     8 NBE=     8 NFC=     2 NFV=     0
 NROrb=     12 NOA=     6 NOB=     6 NVA=     6 NVB=     6
 Semi-Direct transformation.
 ModeAB=           2 MOrb=             6 LenV=      33443123
 LASXX=         2721 LTotXX=        2721 LenRXX=        2721
 LTotAB=        3690 MaxLAS=        7560 LenRXY=        7560
 NonZer=        8424 LenScr=      785920 LnRSAI=           0
 LnScr1=           0 LExtra=           0 Total=       796201
 MaxDsk=          -1 SrtSym=           F ITran=            4
 JobTyp=0 Pass  1:  I=   1 to   6.
 (rs|ai) integrals will be sorted in core.
 SymMOI:  orbitals are not symmetric.
 Spin components of T(2) and E(2):
     alpha-alpha T2 =       0.3646654016D-02 E2=     -0.8348778394D-02
     alpha-beta  T2 =       0.5431981753D-01 E2=     -0.1112038933D+00
     beta-beta   T2 =       0.3646654016D-02 E2=     -0.8348778394D-02
 ANorm=    0.1030346119D+01
 E2 =    -0.1279014501D+00 EUMP2 =    -0.77194689429694D+02
 Keep R2 and R3 ints in memory in canonical form, NReq=812344.
 Iterations=  50 Convergence= 0.100D-07
 Iteration Nr.   1
 **********************
 DD1Dir will call FoFMem   1 times, MxPair=        42
 NAB=    21 NAA=     0 NBB=     0.
 MP4(R+Q)=  0.14732220D-02
 E3=       -0.25437645D-01        EUMP3=      -0.77220127075D+02
 E4(DQ)=   -0.86952699D-02        UMP4(DQ)=   -0.77228822345D+02
 E4(SDQ)=  -0.87671371D-02        UMP4(SDQ)=  -0.77228894212D+02
 DE(Corr)= -0.15186583     E(Corr)=     -77.218653811    
 NORM(A)=   0.10485504D+01
 Iteration Nr.   2
 **********************
 DD1Dir will call FoFMem   1 times, MxPair=        42
 NAB=    21 NAA=     0 NBB=     0.
 DE(Corr)= -0.16251339     E(CORR)=     -77.229301374     Delta=-1.06D-02
 NORM(A)=   0.10582170D+01
 Iteration Nr.   3
 **********************
 DD1Dir will call FoFMem   1 times, MxPair=        42
 NAB=    21 NAA=     0 NBB=     0.
 DE(Corr)= -0.16726354     E(CORR)=     -77.234051518     Delta=-4.75D-03
 NORM(A)=   0.10603686D+01
 Iteration Nr.   4
 **********************
 DD1Dir will call FoFMem   1 times, MxPair=        42
 NAB=    21 NAA=     0 NBB=     0.
 DE(Corr)= -0.16809687     E(CORR)=     -77.234884853     Delta=-8.33D-04
 NORM(A)=   0.10607432D+01
 Iteration Nr.   5
 **********************
 DD1Dir will call FoFMem   1 times, MxPair=        42
 NAB=    21 NAA=     0 NBB=     0.
 DE(Corr)= -0.16817834     E(CORR)=     -77.234966316     Delta=-8.15D-05
 NORM(A)=   0.10607549D+01
 Iteration Nr.   6
 **********************
 DD1Dir will call FoFMem   1 times, MxPair=        42
 NAB=    21 NAA=     0 NBB=     0.
 DE(Corr)= -0.16817684     E(CORR)=     -77.234964823     Delta= 1.49D-06
 NORM(A)=   0.10607563D+01
 Iteration Nr.   7
 **********************
 DD1Dir will call FoFMem   1 times, MxPair=        42
 NAB=    21 NAA=     0 NBB=     0.
 DE(Corr)= -0.16817702     E(CORR)=     -77.234964996     Delta=-1.74D-07
 NORM(A)=   0.10607566D+01
 Iteration Nr.   8
 **********************
 DD1Dir will call FoFMem   1 times, MxPair=        42
 NAB=    21 NAA=     0 NBB=     0.
 DE(Corr)= -0.16817712     E(CORR)=     -77.234965096     Delta=-9.98D-08
 NORM(A)=   0.10607564D+01
 Iteration Nr.   9
 **********************
 DD1Dir will call FoFMem   1 times, MxPair=        42
 NAB=    21 NAA=     0 NBB=     0.
 DE(Corr)= -0.16817709     E(CORR)=     -77.234965070     Delta= 2.59D-08
 NORM(A)=   0.10607564D+01
 Iteration Nr.  10
 **********************
 DD1Dir will call FoFMem   1 times, MxPair=        42
 NAB=    21 NAA=     0 NBB=     0.
 DE(Corr)= -0.16817710     E(CORR)=     -77.234965078     Delta=-8.11D-09
 NORM(A)=   0.10607564D+01
 Iteration Nr.  11
 **********************
 DD1Dir will call FoFMem   1 times, MxPair=        42
 NAB=    21 NAA=     0 NBB=     0.
 DE(Corr)= -0.16817710     E(CORR)=     -77.234965080     Delta=-1.78D-09
 NORM(A)=   0.10607564D+01
 Dominant configurations:
 ***********************
 Spin Case        I    J    A    B          Value
   ABAB           8    8    9    9      -0.233776D+00
 Largest amplitude= 2.34D-01

 Z-AMPLITUDE ITERATIONS

 Iteration Nr.   1
 **********************
 DD1Dir will call FoFMem   1 times, MxPair=        42
 NAB=    21 NAA=     0 NBB=     0.
 DE(Z)  -0.16353531D+00          E(Z)=    -0.77230323287D+02
 NORM(A)=   0.10607567D+01
 Iteration Nr.   2
 **********************
 DD1Dir will call FoFMem   1 times, MxPair=        42
 NAB=    21 NAA=     0 NBB=     0.
 DE(Z)  -0.16353538D+00          E(Z)=    -0.77230323358D+02
 NORM(A)=   0.10607572D+01
 Iteration Nr.   3
 **********************
 DD1Dir will call FoFMem   1 times, MxPair=        42
 NAB=    21 NAA=     0 NBB=     0.
 DE(Z)  -0.16353548D+00          E(Z)=    -0.77230323460D+02
 NORM(A)=   0.10607575D+01
 Iteration Nr.   4
 **********************
 DD1Dir will call FoFMem   1 times, MxPair=        42
 NAB=    21 NAA=     0 NBB=     0.
 DE(Z)  -0.16353554D+00          E(Z)=    -0.77230323516D+02
 NORM(A)=   0.10607529D+01
 Iteration Nr.   5
 **********************
 DD1Dir will call FoFMem   1 times, MxPair=        42
 NAB=    21 NAA=     0 NBB=     0.
 DE(Z)  -0.16353463D+00          E(Z)=    -0.77230322614D+02
 NORM(A)=   0.10561456D+01
 Iteration Nr.   6
 **********************
 DD1Dir will call FoFMem   1 times, MxPair=        42
 NAB=    21 NAA=     0 NBB=     0.
 DE(Z)  -0.16260581D+00          E(Z)=    -0.77229393786D+02
 NORM(A)=   0.10561464D+01
 Iteration Nr.   7
 **********************
 DD1Dir will call FoFMem   1 times, MxPair=        42
 NAB=    21 NAA=     0 NBB=     0.
 DE(Z)  -0.16260604D+00          E(Z)=    -0.77229394018D+02
 NORM(A)=   0.10561467D+01
 Iteration Nr.   8
 **********************
 DD1Dir will call FoFMem   1 times, MxPair=        42
 NAB=    21 NAA=     0 NBB=     0.
 DE(Z)  -0.16260613D+00          E(Z)=    -0.77229394113D+02
 NORM(A)=   0.10561469D+01
 Iteration Nr.   9
 **********************
 DD1Dir will call FoFMem   1 times, MxPair=        42
 NAB=    21 NAA=     0 NBB=     0.
 DE(Z)  -0.16260617D+00          E(Z)=    -0.77229394154D+02
 NORM(A)=   0.10561469D+01
 Iteration Nr.  10
 **********************
 DD1Dir will call FoFMem   1 times, MxPair=        42
 NAB=    21 NAA=     0 NBB=     0.
 DE(Z)  -0.16260618D+00          E(Z)=    -0.77229394163D+02
 NORM(A)=   0.10561469D+01
 Discarding MO integrals.
          IDoAtm=111111
          Differentiating once with respect to electric field.
                with respect to dipole field.
          Differentiating once with respect to nuclear coordinates.
 Keep R1 ints in memory in canonical form, NReq=814237.
          There are     1 degrees of freedom in the 1st order CPHF.  IDoFFX=0 NUNeed=     1.
 LinEq1:  Iter=  0 NonCon=     1 RMS=1.96D-03 Max=8.34D-03 NDo=     1
 AX will form     1 AO Fock derivatives at one time.
 LinEq1:  Iter=  1 NonCon=     1 RMS=1.94D-04 Max=1.01D-03 NDo=     1
 LinEq1:  Iter=  2 NonCon=     1 RMS=1.88D-05 Max=1.05D-04 NDo=     1
 LinEq1:  Iter=  3 NonCon=     1 RMS=6.09D-07 Max=2.39D-06 NDo=     1
 LinEq1:  Iter=  4 NonCon=     1 RMS=3.67D-08 Max=1.69D-07 NDo=     1
 LinEq1:  Iter=  5 NonCon=     1 RMS=3.36D-09 Max=1.38D-08 NDo=     1
 LinEq1:  Iter=  6 NonCon=     0 RMS=7.90D-11 Max=2.97D-10 NDo=     1
 Linear equations converged to 1.000D-10 1.000D-09 after     6 iterations.
 End of Minotr F.D. properties file   721 does not exist.
 End of Minotr F.D. properties file   722 does not exist.
 End of Minotr F.D. properties file   788 does not exist.
 Calling FoFJK, ICntrl=  10002127 FMM=F ISym2X=0 I1Cent= 0 IOpClX= 0 NMat=1 NMatS=1 NMatT=0.
 ***** Axes restored to original set *****
 -------------------------------------------------------------------
 Center     Atomic                   Forces (Hartrees/Bohr)
 Number     Number              X              Y              Z
 -------------------------------------------------------------------
      1        6           0.005338364   -0.000470049    0.000000256
      2        6          -0.005338391    0.000469742   -0.000000331
      3        1           0.001606019   -0.000142220    0.002224525
      4        1           0.001606583   -0.000140449   -0.002224972
      5        1          -0.001606587    0.000140630    0.002225043
      6        1          -0.001605987    0.000142345   -0.002224521
 -------------------------------------------------------------------
 Cartesian Forces:  Max     0.005338391 RMS     0.002206520

 GradGradGradGradGradGradGradGradGradGradGradGradGradGradGradGradGradGrad
 Berny optimization.
 Using GEDIIS/GDIIS optimizer.
 FormGI is forming the generalized inverse of G from B-inverse, IUseBI=4.
 Internal  Forces:  Max     0.008584032 RMS     0.002632539
 Search for a local minimum.
 Step number   2 out of a maximum of   25
 All quantities printed in internal units (Hartrees-Bohrs-Radians)
 Mixed Optimization -- RFO/linear search
 Update second derivatives using D2CorX and points    1    2
 DE= -2.35D-03 DEPred=-3.03D-03 R= 7.74D-01
 TightC=F SS=  1.41D+00  RLast= 1.20D-01 DXNew= 5.0454D-01 3.5859D-01
 Trust test= 7.74D-01 RLast= 1.20D-01 DXMaxT set to 3.59D-01
 The second derivative matrix:
                          R1        R2        R3        R4        R5
           R1           0.67701
           R2           0.02291   0.35892
           R3           0.02291   0.00762   0.35893
           R4           0.02291   0.00762   0.00762   0.35893
           R5           0.02291   0.00762   0.00762   0.00762   0.35892
           A1           0.00171   0.00055   0.00055   0.00055   0.00055
           A2           0.00171   0.00055   0.00055   0.00055   0.00055
           A3          -0.00342  -0.00110  -0.00110  -0.00110  -0.00110
           A4           0.00171   0.00055   0.00055   0.00055   0.00055
           A5           0.00171   0.00055   0.00055   0.00055   0.00055
           A6          -0.00342  -0.00110  -0.00110  -0.00110  -0.00110
           D1           0.00000   0.00000   0.00000   0.00000   0.00000
           D2           0.00000   0.00000   0.00000   0.00000   0.00000
           D3           0.00000   0.00000   0.00000   0.00000   0.00000
           D4           0.00000   0.00000   0.00000   0.00000   0.00000
                          A1        A2        A3        A4        A5
           A1           0.16001
           A2           0.00001   0.16001
           A3          -0.00001  -0.00001   0.16003
           A4           0.00001   0.00001  -0.00001   0.16001
           A5           0.00001   0.00001  -0.00001   0.00001   0.16001
           A6          -0.00001  -0.00001   0.00003  -0.00001  -0.00001
           D1           0.00000   0.00000   0.00000   0.00000   0.00000
           D2           0.00000   0.00000   0.00000   0.00000   0.00000
           D3           0.00000   0.00000   0.00000   0.00000   0.00000
           D4           0.00000   0.00000   0.00000   0.00000   0.00000
                          A6        D1        D2        D3        D4
           A6           0.16003
           D1           0.00000   0.03087
           D2           0.00000   0.00000   0.03087
           D3           0.00000   0.00000   0.00000   0.03087
           D4           0.00000   0.00000   0.00000   0.00000   0.03087
 ITU=  1  0
 Use linear search instead of GDIIS.
     Eigenvalues ---    0.03087   0.03087   0.03087   0.15997   0.16000
     Eigenvalues ---    0.16000   0.16000   0.35131   0.35131   0.35131
     Eigenvalues ---    0.37487   0.68404
 RFO step:  Lambda=-2.72781076D-06 EMin= 3.08730960D-02
 Quartic linear search produced a step of -0.16552.
 Iteration  1 RMS(Cart)=  0.00692378 RMS(Int)=  0.00000327
 Iteration  2 RMS(Cart)=  0.00000384 RMS(Int)=  0.00000000
 Iteration  3 RMS(Cart)=  0.00000000 RMS(Int)=  0.00000000
 Variable       Old X    -DE/DX   Delta X   Delta X   Delta X     New X
                                 (Linear)    (Quad)   (Total)
    R1        2.57350  -0.00858  -0.01167  -0.00059  -0.01226   2.56124
    R2        2.09695  -0.00274  -0.00700  -0.00003  -0.00703   2.08992
    R3        2.09695  -0.00274  -0.00700  -0.00003  -0.00703   2.08992
    R4        2.09695  -0.00274  -0.00700  -0.00003  -0.00703   2.08992
    R5        2.09695  -0.00274  -0.00700  -0.00003  -0.00703   2.08992
    A1        2.12774  -0.00013  -0.00221   0.00115  -0.00107   2.12667
    A2        2.12774  -0.00013  -0.00222   0.00114  -0.00107   2.12667
    A3        2.02771   0.00027   0.00443  -0.00229   0.00214   2.02985
    A4        2.12774  -0.00013  -0.00222   0.00114  -0.00107   2.12667
    A5        2.12774  -0.00013  -0.00221   0.00115  -0.00107   2.12667
    A6        2.02771   0.00027   0.00443  -0.00229   0.00214   2.02985
    D1        0.00000   0.00000   0.00000   0.00000   0.00000   0.00000
    D2       -3.14159   0.00000   0.00000   0.00000   0.00000   3.14159
    D3        3.14159   0.00000   0.00000   0.00000   0.00001  -3.14159
    D4        0.00000   0.00000   0.00000   0.00000   0.00000   0.00000
         Item               Value     Threshold  Converged?
 Maximum Force            0.008584     0.000450     NO 
 RMS     Force            0.002633     0.000300     NO 
 Maximum Displacement     0.011703     0.001800     NO 
 RMS     Displacement     0.006922     0.001200     NO 
 Predicted change in Energy=-8.596298D-05
 GradGradGradGradGradGradGradGradGradGradGradGradGradGradGradGradGradGrad

                          Input orientation:                          
 ---------------------------------------------------------------------
 Center     Atomic      Atomic             Coordinates (Angstroms)
 Number     Number       Type             X           Y           Z
 ---------------------------------------------------------------------
      1          6           0       -7.666038    3.042622    0.000001
      2          6           0       -6.315912    2.923770   -0.000001
      3          1           0       -8.247344    3.094172   -0.939426
      4          1           0       -8.247408    3.093421    0.939428
      5          1           0       -5.734542    2.872973   -0.939428
      6          1           0       -5.734606    2.872221    0.939426
 ---------------------------------------------------------------------
                    Distance matrix (angstroms):
                    1          2          3          4          5
     1  C    0.000000
     2  C    1.355347   0.000000
     3  H    1.105936   2.154526   0.000000
     4  H    1.105936   2.154526   1.878854   0.000000
     5  H    2.154526   1.105936   2.522519   3.145344   0.000000
     6  H    2.154526   1.105936   3.145344   2.522519   1.878854
                    6
     6  H    0.000000
 Stoichiometry    C2H4
 Framework group  C1[X(C2H4)]
 Deg. of freedom    12
 Full point group                 C1      NOp   1
 Largest Abelian subgroup         C1      NOp   1
 Largest concise Abelian subgroup C1      NOp   1
                         Standard orientation:                         
 ---------------------------------------------------------------------
 Center     Atomic      Atomic             Coordinates (Angstroms)
 Number     Number       Type             X           Y           Z
 ---------------------------------------------------------------------
      1          6           0       -0.677674    0.000000    0.000000
      2          6           0        0.677674    0.000000    0.000000
      3          1           0       -1.261259    0.939427    0.000000
      4          1           0       -1.261259   -0.939427    0.000001
      5          1           0        1.261259    0.939427    0.000001
      6          1           0        1.261259   -0.939427    0.000001
 ---------------------------------------------------------------------
 Rotational constants (GHZ):    142.0515973     28.9869761     24.0743721
 Standard basis: STO-3G (5D, 7F)
 There are    14 symmetry adapted cartesian basis functions of A   symmetry.
 There are    14 symmetry adapted basis functions of A   symmetry.
    14 basis functions,    42 primitive gaussians,    14 cartesian basis functions
     8 alpha electrons        8 beta electrons
       nuclear repulsion energy        32.7534559758 Hartrees.
 NAtoms=    6 NActive=    6 NUniq=    6 SFac= 1.00D+00 NAtFMM=   60 NAOKFM=F Big=F
 Integral buffers will be    131072 words long.
 Raffenetti 1 integral format.
 Two-electron integral symmetry is turned on.
 One-electron integrals computed using PRISM.
 NBasis=    14 RedAO= T EigKep=  2.03D-01  NBF=    14
 NBsUse=    14 1.00D-06 EigRej= -1.00D+00 NBFU=    14
 Initial guess from the checkpoint file:  "/scr/Gau-20428.chk"
 B after Tr=     0.000000    0.000000    0.000000
         Rot=    1.000000    0.000000    0.000000    0.000000 Ang=   0.00 deg.
 Keep R1 ints in memory in canonical form, NReq=831627.
 Requested convergence on RMS density matrix=1.00D-08 within 128 cycles.
 Requested convergence on MAX density matrix=1.00D-06.
 Requested convergence on             energy=1.00D-06.
 No special actions if energy rises.
 SCF Done:  E(RHF) =  -77.0683897109     A.U. after    6 cycles
            NFock=  6  Conv=0.28D-08     -V/T= 2.0078
 ExpMin= 1.69D-01 ExpMax= 7.16D+01 ExpMxC= 7.16D+01 IAcc=3 IRadAn=         5 AccDes= 0.00D+00
 HarFok:  IExCor=  205 AccDes= 0.00D+00 IRadAn=         5 IDoV=-2 UseB2=F ITyADJ=14
 ICtDFT= 12500011 ScaDFX=  1.000000  1.000000  1.000000  1.000000
 Range of M.O.s used for correlation:     3    14
 NBasis=    14 NAE=     8 NBE=     8 NFC=     2 NFV=     0
 NROrb=     12 NOA=     6 NOB=     6 NVA=     6 NVB=     6
 Semi-Direct transformation.
 ModeAB=           2 MOrb=             6 LenV=      33443123
 LASXX=         2721 LTotXX=        2721 LenRXX=        2721
 LTotAB=        3690 MaxLAS=        7560 LenRXY=        7560
 NonZer=        8424 LenScr=      785920 LnRSAI=           0
 LnScr1=           0 LExtra=           0 Total=       796201
 MaxDsk=          -1 SrtSym=           F ITran=            4
 JobTyp=0 Pass  1:  I=   1 to   6.
 (rs|ai) integrals will be sorted in core.
 SymMOI:  orbitals are not symmetric.
 Spin components of T(2) and E(2):
     alpha-alpha T2 =       0.3579713920D-02 E2=     -0.8251777471D-02
     alpha-beta  T2 =       0.5349325887D-01 E2=     -0.1102275413D+00
     beta-beta   T2 =       0.3579713920D-02 E2=     -0.8251777471D-02
 ANorm=    0.1029879938D+01
 E2 =    -0.1267310963D+00 EUMP2 =    -0.77195120807167D+02
 Keep R2 and R3 ints in memory in canonical form, NReq=812344.
 Iterations=  50 Convergence= 0.100D-07
 Iteration Nr.   1
 **********************
 DD1Dir will call FoFMem   1 times, MxPair=        42
 NAB=    21 NAA=     0 NBB=     0.
 MP4(R+Q)=  0.14373935D-02
 E3=       -0.25297097D-01        EUMP3=      -0.77220417904D+02
 E4(DQ)=   -0.85997535D-02        UMP4(DQ)=   -0.77229017658D+02
 E4(SDQ)=  -0.86711437D-02        UMP4(SDQ)=  -0.77229089048D+02
 DE(Corr)= -0.15059077     E(Corr)=     -77.218980486    
 NORM(A)=   0.10478956D+01
 Iteration Nr.   2
 **********************
 DD1Dir will call FoFMem   1 times, MxPair=        42
 NAB=    21 NAA=     0 NBB=     0.
 DE(Corr)= -0.16113771     E(CORR)=     -77.229527425     Delta=-1.05D-02
 NORM(A)=   0.10572974D+01
 Iteration Nr.   3
 **********************
 DD1Dir will call FoFMem   1 times, MxPair=        42
 NAB=    21 NAA=     0 NBB=     0.
 DE(Corr)= -0.16578295     E(CORR)=     -77.234172666     Delta=-4.65D-03
 NORM(A)=   0.10593740D+01
 Iteration Nr.   4
 **********************
 DD1Dir will call FoFMem   1 times, MxPair=        42
 NAB=    21 NAA=     0 NBB=     0.
 DE(Corr)= -0.16659223     E(CORR)=     -77.234981942     Delta=-8.09D-04
 NORM(A)=   0.10597320D+01
 Iteration Nr.   5
 **********************
 DD1Dir will call FoFMem   1 times, MxPair=        42
 NAB=    21 NAA=     0 NBB=     0.
 DE(Corr)= -0.16667007     E(CORR)=     -77.235059779     Delta=-7.78D-05
 NORM(A)=   0.10597427D+01
 Iteration Nr.   6
 **********************
 DD1Dir will call FoFMem   1 times, MxPair=        42
 NAB=    21 NAA=     0 NBB=     0.
 DE(Corr)= -0.16666847     E(CORR)=     -77.235058181     Delta= 1.60D-06
 NORM(A)=   0.10597441D+01
 Iteration Nr.   7
 **********************
 DD1Dir will call FoFMem   1 times, MxPair=        42
 NAB=    21 NAA=     0 NBB=     0.
 DE(Corr)= -0.16666866     E(CORR)=     -77.235058373     Delta=-1.93D-07
 NORM(A)=   0.10597444D+01
 Iteration Nr.   8
 **********************
 DD1Dir will call FoFMem   1 times, MxPair=        42
 NAB=    21 NAA=     0 NBB=     0.
 DE(Corr)= -0.16666876     E(CORR)=     -77.235058472     Delta=-9.84D-08
 NORM(A)=   0.10597442D+01
 Iteration Nr.   9
 **********************
 DD1Dir will call FoFMem   1 times, MxPair=        42
 NAB=    21 NAA=     0 NBB=     0.
 DE(Corr)= -0.16666873     E(CORR)=     -77.235058445     Delta= 2.65D-08
 NORM(A)=   0.10597442D+01
 Iteration Nr.  10
 **********************
 DD1Dir will call FoFMem   1 times, MxPair=        42
 NAB=    21 NAA=     0 NBB=     0.
 DE(Corr)= -0.16666874     E(CORR)=     -77.235058452     Delta=-6.49D-09
 NORM(A)=   0.10597442D+01
 Iteration Nr.  11
 **********************
 DD1Dir will call FoFMem   1 times, MxPair=        42
 NAB=    21 NAA=     0 NBB=     0.
 DE(Corr)= -0.16666874     E(CORR)=     -77.235058453     Delta=-1.33D-09
 NORM(A)=   0.10597442D+01
 Dominant configurations:
 ***********************
 Spin Case        I    J    A    B          Value
   ABAB           8    8    9    9      -0.231208D+00
 Largest amplitude= 2.31D-01

 Z-AMPLITUDE ITERATIONS

 Iteration Nr.   1
 **********************
 DD1Dir will call FoFMem   1 times, MxPair=        42
 NAB=    21 NAA=     0 NBB=     0.
 DE(Z)  -0.16217076D+00          E(Z)=    -0.77230560466D+02
 NORM(A)=   0.10597445D+01
 Iteration Nr.   2
 **********************
 DD1Dir will call FoFMem   1 times, MxPair=        42
 NAB=    21 NAA=     0 NBB=     0.
 DE(Z)  -0.16217082D+00          E(Z)=    -0.77230560533D+02
 NORM(A)=   0.10597451D+01
 Iteration Nr.   3
 **********************
 DD1Dir will call FoFMem   1 times, MxPair=        42
 NAB=    21 NAA=     0 NBB=     0.
 DE(Z)  -0.16217094D+00          E(Z)=    -0.77230560654D+02
 NORM(A)=   0.10597453D+01
 Iteration Nr.   4
 **********************
 DD1Dir will call FoFMem   1 times, MxPair=        42
 NAB=    21 NAA=     0 NBB=     0.
 DE(Z)  -0.16217098D+00          E(Z)=    -0.77230560692D+02
 NORM(A)=   0.10597428D+01
 Iteration Nr.   5
 **********************
 DD1Dir will call FoFMem   1 times, MxPair=        42
 NAB=    21 NAA=     0 NBB=     0.
 DE(Z)  -0.16217048D+00          E(Z)=    -0.77230560190D+02
 NORM(A)=   0.10552907D+01
 Iteration Nr.   6
 **********************
 DD1Dir will call FoFMem   1 times, MxPair=        42
 NAB=    21 NAA=     0 NBB=     0.
 DE(Z)  -0.16125554D+00          E(Z)=    -0.77229645248D+02
 NORM(A)=   0.10552920D+01
 Iteration Nr.   7
 **********************
 DD1Dir will call FoFMem   1 times, MxPair=        42
 NAB=    21 NAA=     0 NBB=     0.
 DE(Z)  -0.16125585D+00          E(Z)=    -0.77229645566D+02
 NORM(A)=   0.10552924D+01
 Iteration Nr.   8
 **********************
 DD1Dir will call FoFMem   1 times, MxPair=        42
 NAB=    21 NAA=     0 NBB=     0.
 DE(Z)  -0.16125598D+00          E(Z)=    -0.77229645690D+02
 NORM(A)=   0.10552925D+01
 Iteration Nr.   9
 **********************
 DD1Dir will call FoFMem   1 times, MxPair=        42
 NAB=    21 NAA=     0 NBB=     0.
 DE(Z)  -0.16125604D+00          E(Z)=    -0.77229645750D+02
 NORM(A)=   0.10552926D+01
 Iteration Nr.  10
 **********************
 DD1Dir will call FoFMem   1 times, MxPair=        42
 NAB=    21 NAA=     0 NBB=     0.
 DE(Z)  -0.16125606D+00          E(Z)=    -0.77229645775D+02
 NORM(A)=   0.10552926D+01
 Iteration Nr.  11
 **********************
 DD1Dir will call FoFMem   1 times, MxPair=        42
 NAB=    21 NAA=     0 NBB=     0.
 DE(Z)  -0.16125607D+00          E(Z)=    -0.77229645779D+02
 NORM(A)=   0.10552926D+01
 Discarding MO integrals.
          IDoAtm=111111
          Differentiating once with respect to electric field.
                with respect to dipole field.
          Differentiating once with respect to nuclear coordinates.
 Keep R1 ints in memory in canonical form, NReq=814237.
          There are     1 degrees of freedom in the 1st order CPHF.  IDoFFX=0 NUNeed=     1.
 LinEq1:  Iter=  0 NonCon=     1 RMS=1.94D-03 Max=8.12D-03 NDo=     1
 AX will form     1 AO Fock derivatives at one time.
 LinEq1:  Iter=  1 NonCon=     1 RMS=1.89D-04 Max=9.97D-04 NDo=     1
 LinEq1:  Iter=  2 NonCon=     1 RMS=1.81D-05 Max=1.01D-04 NDo=     1
 LinEq1:  Iter=  3 NonCon=     1 RMS=5.97D-07 Max=2.34D-06 NDo=     1
 LinEq1:  Iter=  4 NonCon=     1 RMS=3.59D-08 Max=1.67D-07 NDo=     1
 LinEq1:  Iter=  5 NonCon=     1 RMS=3.24D-09 Max=1.34D-08 NDo=     1
 LinEq1:  Iter=  6 NonCon=     0 RMS=8.35D-11 Max=3.04D-10 NDo=     1
 Linear equations converged to 1.000D-10 1.000D-09 after     6 iterations.
 End of Minotr F.D. properties file   721 does not exist.
 End of Minotr F.D. properties file   722 does not exist.
 End of Minotr F.D. properties file   788 does not exist.
 Calling FoFJK, ICntrl=  10002127 FMM=F ISym2X=0 I1Cent= 0 IOpClX= 0 NMat=1 NMatS=1 NMatT=0.
 ***** Axes restored to original set *****
 -------------------------------------------------------------------
 Center     Atomic                   Forces (Hartrees/Bohr)
 Number     Number              X              Y              Z
 -------------------------------------------------------------------
      1        6           0.000840371   -0.000073940    0.000000017
      2        6          -0.000840364    0.000074174   -0.000000029
      3        1          -0.000175392    0.000015442   -0.000014262
      4        1          -0.000175425    0.000015366    0.000014274
      5        1           0.000175414   -0.000015550   -0.000014266
      6        1           0.000175396   -0.000015492    0.000014266
 -------------------------------------------------------------------
 Cartesian Forces:  Max     0.000840371 RMS     0.000293281

 GradGradGradGradGradGradGradGradGradGradGradGradGradGradGradGradGradGrad
 Berny optimization.
 Using GEDIIS/GDIIS optimizer.
 FormGI is forming the generalized inverse of G from B-inverse, IUseBI=4.
 Internal  Forces:  Max     0.000491450 RMS     0.000163943
 Search for a local minimum.
 Step number   3 out of a maximum of   25
 All quantities printed in internal units (Hartrees-Bohrs-Radians)
 Mixed Optimization -- En-DIIS/RFO-DIIS
 Update second derivatives using D2CorX and points    1    2    3
 DE= -9.34D-05 DEPred=-8.60D-05 R= 1.09D+00
 TightC=F SS=  1.41D+00  RLast= 1.90D-02 DXNew= 6.0307D-01 5.7062D-02
 Trust test= 1.09D+00 RLast= 1.90D-02 DXMaxT set to 3.59D-01
 The second derivative matrix:
                          R1        R2        R3        R4        R5
           R1           0.62622
           R2           0.01347   0.35835
           R3           0.01347   0.00704   0.35835
           R4           0.01347   0.00704   0.00704   0.35836
           R5           0.01347   0.00704   0.00704   0.00704   0.35835
           A1           0.00266   0.00103   0.00103   0.00103   0.00103
           A2           0.00266   0.00103   0.00103   0.00103   0.00103
           A3          -0.00532  -0.00206  -0.00206  -0.00206  -0.00206
           A4           0.00266   0.00103   0.00103   0.00103   0.00103
           A5           0.00266   0.00103   0.00103   0.00103   0.00103
           A6          -0.00532  -0.00206  -0.00206  -0.00206  -0.00206
           D1           0.00000   0.00000   0.00000   0.00000   0.00000
           D2           0.00000   0.00000   0.00000   0.00000   0.00000
           D3           0.00000   0.00000   0.00000   0.00000   0.00000
           D4           0.00000   0.00000   0.00000   0.00000   0.00000
                          A1        A2        A3        A4        A5
           A1           0.16006
           A2           0.00007   0.16007
           A3          -0.00013  -0.00013   0.16026
           A4           0.00007   0.00007  -0.00013   0.16007
           A5           0.00006   0.00007  -0.00013   0.00007   0.16006
           A6          -0.00013  -0.00013   0.00026  -0.00013  -0.00013
           D1           0.00000   0.00000   0.00000   0.00000   0.00000
           D2           0.00000   0.00000   0.00000   0.00000   0.00000
           D3           0.00000   0.00000   0.00000   0.00000   0.00000
           D4           0.00000   0.00000   0.00000   0.00000   0.00000
                          A6        D1        D2        D3        D4
           A6           0.16026
           D1           0.00000   0.03087
           D2           0.00000   0.00000   0.03087
           D3           0.00000   0.00000   0.00000   0.03087
           D4           0.00000   0.00000   0.00000   0.00000   0.03087
 ITU=  1  1  0
 Use linear search instead of GDIIS.
     Eigenvalues ---    0.03087   0.03087   0.03087   0.16000   0.16000
     Eigenvalues ---    0.16000   0.16040   0.35131   0.35131   0.35131
     Eigenvalues ---    0.37675   0.62934
 RFO step:  Lambda=-1.25583834D-06 EMin= 3.08730960D-02
 Quartic linear search produced a step of  0.00975.
 Iteration  1 RMS(Cart)=  0.00051224 RMS(Int)=  0.00000022
 Iteration  2 RMS(Cart)=  0.00000023 RMS(Int)=  0.00000000
 Variable       Old X    -DE/DX   Delta X   Delta X   Delta X     New X
                                 (Linear)    (Quad)   (Total)
    R1        2.56124  -0.00049  -0.00012  -0.00072  -0.00084   2.56040
    R2        2.08992   0.00011  -0.00007   0.00036   0.00029   2.09020
    R3        2.08992   0.00011  -0.00007   0.00036   0.00029   2.09020
    R4        2.08992   0.00011  -0.00007   0.00036   0.00029   2.09020
    R5        2.08992   0.00011  -0.00007   0.00036   0.00029   2.09020
    A1        2.12667   0.00010  -0.00001   0.00063   0.00062   2.12729
    A2        2.12667   0.00010  -0.00001   0.00063   0.00062   2.12729
    A3        2.02985  -0.00020   0.00002  -0.00127  -0.00124   2.02860
    A4        2.12667   0.00010  -0.00001   0.00063   0.00062   2.12729
    A5        2.12667   0.00010  -0.00001   0.00063   0.00062   2.12729
    A6        2.02985  -0.00020   0.00002  -0.00127  -0.00124   2.02860
    D1        0.00000   0.00000   0.00000   0.00000   0.00000   0.00000
    D2        3.14159   0.00000   0.00000   0.00000   0.00000  -3.14159
    D3       -3.14159   0.00000   0.00000   0.00000   0.00000   3.14159
    D4        0.00000   0.00000   0.00000   0.00000   0.00000   0.00000
         Item               Value     Threshold  Converged?
 Maximum Force            0.000491     0.000450     NO 
 RMS     Force            0.000164     0.000300     YES
 Maximum Displacement     0.000834     0.001800     YES
 RMS     Displacement     0.000512     0.001200     YES
 Predicted change in Energy=-6.361635D-07
 GradGradGradGradGradGradGradGradGradGradGradGradGradGradGradGradGradGrad

                          Input orientation:                          
 ---------------------------------------------------------------------
 Center     Atomic      Atomic             Coordinates (Angstroms)
 Number     Number       Type             X           Y           Z
 ---------------------------------------------------------------------
      1          6           0       -7.665817    3.042603    0.000001
      2          6           0       -6.316133    2.923791   -0.000001
      3          1           0       -8.247785    3.094211   -0.939191
      4          1           0       -8.247849    3.093459    0.939194
      5          1           0       -5.734101    2.872933   -0.939194
      6          1           0       -5.734165    2.872182    0.939191
 ---------------------------------------------------------------------
                    Distance matrix (angstroms):
                    1          2          3          4          5
     1  C    0.000000
     2  C    1.354903   0.000000
     3  H    1.106088   2.154623   0.000000
     4  H    1.106088   2.154623   1.878385   0.000000
     5  H    2.154623   1.106088   2.523404   3.145775   0.000000
     6  H    2.154623   1.106088   3.145775   2.523404   1.878385
                    6
     6  H    0.000000
 Stoichiometry    C2H4
 Framework group  C1[X(C2H4)]
 Deg. of freedom    12
 Full point group                 C1      NOp   1
 Largest Abelian subgroup         C1      NOp   1
 Largest concise Abelian subgroup C1      NOp   1
                         Standard orientation:                         
 ---------------------------------------------------------------------
 Center     Atomic      Atomic             Coordinates (Angstroms)
 Number     Number       Type             X           Y           Z
 ---------------------------------------------------------------------
      1          6           0       -0.677452    0.000000    0.000000
      2          6           0        0.677452    0.000000    0.000000
      3          1           0       -1.261702    0.939193    0.000000
      4          1           0       -1.261702   -0.939193   -0.000001
      5          1           0        1.261702    0.939193   -0.000001
      6          1           0        1.261702   -0.939193    0.000000
 ---------------------------------------------------------------------
 Rotational constants (GHZ):    142.1224502     28.9915049     24.0795305
 Standard basis: STO-3G (5D, 7F)
 There are    14 symmetry adapted cartesian basis functions of A   symmetry.
 There are    14 symmetry adapted basis functions of A   symmetry.
    14 basis functions,    42 primitive gaussians,    14 cartesian basis functions
     8 alpha electrons        8 beta electrons
       nuclear repulsion energy        32.7561696747 Hartrees.
 NAtoms=    6 NActive=    6 NUniq=    6 SFac= 1.00D+00 NAtFMM=   60 NAOKFM=F Big=F
 Integral buffers will be    131072 words long.
 Raffenetti 1 integral format.
 Two-electron integral symmetry is turned on.
 One-electron integrals computed using PRISM.
 NBasis=    14 RedAO= T EigKep=  2.03D-01  NBF=    14
 NBsUse=    14 1.00D-06 EigRej= -1.00D+00 NBFU=    14
 Initial guess from the checkpoint file:  "/scr/Gau-20428.chk"
 B after Tr=     0.000000    0.000000    0.000000
         Rot=    1.000000    0.000000    0.000000    0.000000 Ang=   0.00 deg.
 Keep R1 ints in memory in canonical form, NReq=831627.
 Requested convergence on RMS density matrix=1.00D-08 within 128 cycles.
 Requested convergence on MAX density matrix=1.00D-06.
 Requested convergence on             energy=1.00D-06.
 No special actions if energy rises.
 SCF Done:  E(RHF) =  -77.0684285065     A.U. after    5 cycles
            NFock=  5  Conv=0.26D-08     -V/T= 2.0078
 ExpMin= 1.69D-01 ExpMax= 7.16D+01 ExpMxC= 7.16D+01 IAcc=3 IRadAn=         5 AccDes= 0.00D+00
 HarFok:  IExCor=  205 AccDes= 0.00D+00 IRadAn=         5 IDoV=-2 UseB2=F ITyADJ=14
 ICtDFT= 12500011 ScaDFX=  1.000000  1.000000  1.000000  1.000000
 Range of M.O.s used for correlation:     3    14
 NBasis=    14 NAE=     8 NBE=     8 NFC=     2 NFV=     0
 NROrb=     12 NOA=     6 NOB=     6 NVA=     6 NVB=     6
 Semi-Direct transformation.
 ModeAB=           2 MOrb=             6 LenV=      33443123
 LASXX=         2721 LTotXX=        2721 LenRXX=        2721
 LTotAB=        3690 MaxLAS=        7560 LenRXY=        7560
 NonZer=        8424 LenScr=      785920 LnRSAI=           0
 LnScr1=           0 LExtra=           0 Total=       796201
 MaxDsk=          -1 SrtSym=           F ITran=            4
 JobTyp=0 Pass  1:  I=   1 to   6.
 (rs|ai) integrals will be sorted in core.
 SymMOI:  orbitals are not symmetric.
 Spin components of T(2) and E(2):
     alpha-alpha T2 =       0.3576323652D-02 E2=     -0.8247544250D-02
     alpha-beta  T2 =       0.5346101177D-01 E2=     -0.1101979999D+00
     beta-beta   T2 =       0.3576323652D-02 E2=     -0.8247544250D-02
 ANorm=    0.1029860990D+01
 E2 =    -0.1266930884D+00 EUMP2 =    -0.77195121594906D+02
 Keep R2 and R3 ints in memory in canonical form, NReq=812344.
 Iterations=  50 Convergence= 0.100D-07
 Iteration Nr.   1
 **********************
 DD1Dir will call FoFMem   1 times, MxPair=        42
 NAB=    21 NAA=     0 NBB=     0.
 MP4(R+Q)=  0.14353858D-02
 E3=       -0.25299558D-01        EUMP3=      -0.77220421153D+02
 E4(DQ)=   -0.85993133D-02        UMP4(DQ)=   -0.77229020466D+02
 E4(SDQ)=  -0.86708180D-02        UMP4(SDQ)=  -0.77229091971D+02
 DE(Corr)= -0.15055724     E(Corr)=     -77.218985743    
 NORM(A)=   0.10478753D+01
 Iteration Nr.   2
 **********************
 DD1Dir will call FoFMem   1 times, MxPair=        42
 NAB=    21 NAA=     0 NBB=     0.
 DE(Corr)= -0.16110485     E(CORR)=     -77.229533360     Delta=-1.05D-02
 NORM(A)=   0.10572649D+01
 Iteration Nr.   3
 **********************
 DD1Dir will call FoFMem   1 times, MxPair=        42
 NAB=    21 NAA=     0 NBB=     0.
 DE(Corr)= -0.16574587     E(CORR)=     -77.234174379     Delta=-4.64D-03
 NORM(A)=   0.10593372D+01
 Iteration Nr.   4
 **********************
 DD1Dir will call FoFMem   1 times, MxPair=        42
 NAB=    21 NAA=     0 NBB=     0.
 DE(Corr)= -0.16655417     E(CORR)=     -77.234982673     Delta=-8.08D-04
 NORM(A)=   0.10596949D+01
 Iteration Nr.   5
 **********************
 DD1Dir will call FoFMem   1 times, MxPair=        42
 NAB=    21 NAA=     0 NBB=     0.
 DE(Corr)= -0.16663201     E(CORR)=     -77.235060519     Delta=-7.78D-05
 NORM(A)=   0.10597055D+01
 Iteration Nr.   6
 **********************
 DD1Dir will call FoFMem   1 times, MxPair=        42
 NAB=    21 NAA=     0 NBB=     0.
 DE(Corr)= -0.16663041     E(CORR)=     -77.235058918     Delta= 1.60D-06
 NORM(A)=   0.10597069D+01
 Iteration Nr.   7
 **********************
 DD1Dir will call FoFMem   1 times, MxPair=        42
 NAB=    21 NAA=     0 NBB=     0.
 DE(Corr)= -0.16663061     E(CORR)=     -77.235059112     Delta=-1.94D-07
 NORM(A)=   0.10597072D+01
 Iteration Nr.   8
 **********************
 DD1Dir will call FoFMem   1 times, MxPair=        42
 NAB=    21 NAA=     0 NBB=     0.
 DE(Corr)= -0.16663070     E(CORR)=     -77.235059211     Delta=-9.92D-08
 NORM(A)=   0.10597070D+01
 Iteration Nr.   9
 **********************
 DD1Dir will call FoFMem   1 times, MxPair=        42
 NAB=    21 NAA=     0 NBB=     0.
 DE(Corr)= -0.16663068     E(CORR)=     -77.235059185     Delta= 2.64D-08
 NORM(A)=   0.10597070D+01
 Iteration Nr.  10
 **********************
 DD1Dir will call FoFMem   1 times, MxPair=        42
 NAB=    21 NAA=     0 NBB=     0.
 DE(Corr)= -0.16663068     E(CORR)=     -77.235059191     Delta=-6.52D-09
 NORM(A)=   0.10597070D+01
 Iteration Nr.  11
 **********************
 DD1Dir will call FoFMem   1 times, MxPair=        42
 NAB=    21 NAA=     0 NBB=     0.
 DE(Corr)= -0.16663069     E(CORR)=     -77.235059193     Delta=-1.31D-09
 NORM(A)=   0.10597070D+01
 Dominant configurations:
 ***********************
 Spin Case        I    J    A    B          Value
   ABAB           8    8    9    9      -0.231032D+00
 Largest amplitude= 2.31D-01

 Z-AMPLITUDE ITERATIONS

 Iteration Nr.   1
 **********************
 DD1Dir will call FoFMem   1 times, MxPair=        42
 NAB=    21 NAA=     0 NBB=     0.
 DE(Z)  -0.16214027D+00          E(Z)=    -0.77230568777D+02
 NORM(A)=   0.10597072D+01
 Iteration Nr.   2
 **********************
 DD1Dir will call FoFMem   1 times, MxPair=        42
 NAB=    21 NAA=     0 NBB=     0.
 DE(Z)  -0.16214034D+00          E(Z)=    -0.77230568843D+02
 NORM(A)=   0.10597075D+01
 Iteration Nr.   3
 **********************
 DD1Dir will call FoFMem   1 times, MxPair=        42
 NAB=    21 NAA=     0 NBB=     0.
 DE(Z)  -0.16214039D+00          E(Z)=    -0.77230568895D+02
 NORM(A)=   0.10597080D+01
 Iteration Nr.   4
 **********************
 DD1Dir will call FoFMem   1 times, MxPair=        42
 NAB=    21 NAA=     0 NBB=     0.
 DE(Z)  -0.16214049D+00          E(Z)=    -0.77230568992D+02
 NORM(A)=   0.10597107D+01
 Iteration Nr.   5
 **********************
 DD1Dir will call FoFMem   1 times, MxPair=        42
 NAB=    21 NAA=     0 NBB=     0.
 DE(Z)  -0.16214101D+00          E(Z)=    -0.77230569517D+02
 NORM(A)=   0.10552639D+01
 Iteration Nr.   6
 **********************
 DD1Dir will call FoFMem   1 times, MxPair=        42
 NAB=    21 NAA=     0 NBB=     0.
 DE(Z)  -0.16122571D+00          E(Z)=    -0.77229654216D+02
 NORM(A)=   0.10552645D+01
 Iteration Nr.   7
 **********************
 DD1Dir will call FoFMem   1 times, MxPair=        42
 NAB=    21 NAA=     0 NBB=     0.
 DE(Z)  -0.16122593D+00          E(Z)=    -0.77229654432D+02
 NORM(A)=   0.10552644D+01
 Iteration Nr.   8
 **********************
 DD1Dir will call FoFMem   1 times, MxPair=        42
 NAB=    21 NAA=     0 NBB=     0.
 DE(Z)  -0.16122601D+00          E(Z)=    -0.77229654521D+02
 NORM(A)=   0.10552645D+01
 Iteration Nr.   9
 **********************
 DD1Dir will call FoFMem   1 times, MxPair=        42
 NAB=    21 NAA=     0 NBB=     0.
 DE(Z)  -0.16122602D+00          E(Z)=    -0.77229654530D+02
 NORM(A)=   0.10552645D+01
 Discarding MO integrals.
          IDoAtm=111111
          Differentiating once with respect to electric field.
                with respect to dipole field.
          Differentiating once with respect to nuclear coordinates.
 Keep R1 ints in memory in canonical form, NReq=814237.
          There are     1 degrees of freedom in the 1st order CPHF.  IDoFFX=0 NUNeed=     1.
 LinEq1:  Iter=  0 NonCon=     1 RMS=1.94D-03 Max=8.11D-03 NDo=     1
 AX will form     1 AO Fock derivatives at one time.
 LinEq1:  Iter=  1 NonCon=     1 RMS=1.88D-04 Max=9.96D-04 NDo=     1
 LinEq1:  Iter=  2 NonCon=     1 RMS=1.81D-05 Max=1.01D-04 NDo=     1
 LinEq1:  Iter=  3 NonCon=     1 RMS=5.99D-07 Max=2.36D-06 NDo=     1
 LinEq1:  Iter=  4 NonCon=     1 RMS=3.62D-08 Max=1.68D-07 NDo=     1
 LinEq1:  Iter=  5 NonCon=     1 RMS=3.26D-09 Max=1.35D-08 NDo=     1
 LinEq1:  Iter=  6 NonCon=     0 RMS=8.28D-11 Max=3.08D-10 NDo=     1
 Linear equations converged to 1.000D-10 1.000D-09 after     6 iterations.
 End of Minotr F.D. properties file   721 does not exist.
 End of Minotr F.D. properties file   722 does not exist.
 End of Minotr F.D. properties file   788 does not exist.
 Calling FoFJK, ICntrl=  10002127 FMM=F ISym2X=0 I1Cent= 0 IOpClX= 0 NMat=1 NMatS=1 NMatT=0.
 ***** Axes restored to original set *****
 -------------------------------------------------------------------
 Center     Atomic                   Forces (Hartrees/Bohr)
 Number     Number              X              Y              Z
 -------------------------------------------------------------------
      1        6           0.000077818   -0.000006917   -0.000000001
      2        6          -0.000077835    0.000006767    0.000000004
      3        1          -0.000030461    0.000002702    0.000021447
      4        1          -0.000030453    0.000002732   -0.000021450
      5        1           0.000030464   -0.000002643    0.000021448
      6        1           0.000030467   -0.000002640   -0.000021448
 -------------------------------------------------------------------
 Cartesian Forces:  Max     0.000077835 RMS     0.000031436

 GradGradGradGradGradGradGradGradGradGradGradGradGradGradGradGradGradGrad
 Berny optimization.
 Using GEDIIS/GDIIS optimizer.
 FormGI is forming the generalized inverse of G from B-inverse, IUseBI=4.
 Internal  Forces:  Max     0.000051969 RMS     0.000023674
 Search for a local minimum.
 Step number   4 out of a maximum of   25
 All quantities printed in internal units (Hartrees-Bohrs-Radians)
 Mixed Optimization -- En-DIIS/RFO-DIIS
 Swapping is turned off.
 Update second derivatives using D2CorX and points    1    2    3    4
 DE= -7.39D-07 DEPred=-6.36D-07 R= 1.16D+00
 Trust test= 1.16D+00 RLast= 2.38D-03 DXMaxT set to 3.59D-01
 The second derivative matrix:
                          R1        R2        R3        R4        R5
           R1           0.65310
           R2           0.00668   0.35980
           R3           0.00668   0.00849   0.35981
           R4           0.00669   0.00849   0.00850   0.35981
           R5           0.00668   0.00849   0.00849   0.00849   0.35980
           A1           0.00888   0.00025   0.00025   0.00025   0.00025
           A2           0.00888   0.00025   0.00026   0.00025   0.00025
           A3          -0.01776  -0.00051  -0.00051  -0.00051  -0.00051
           A4           0.00888   0.00025   0.00025   0.00025   0.00025
           A5           0.00888   0.00025   0.00025   0.00025   0.00025
           A6          -0.01776  -0.00051  -0.00051  -0.00051  -0.00051
           D1           0.00001   0.00000   0.00000   0.00000   0.00000
           D2          -0.00003   0.00001   0.00001   0.00001   0.00001
           D3           0.00004  -0.00001  -0.00001  -0.00001  -0.00001
           D4           0.00000   0.00000   0.00000   0.00000   0.00000
                          A1        A2        A3        A4        A5
           A1           0.15740
           A2          -0.00260   0.15740
           A3           0.00521   0.00521   0.14958
           A4          -0.00260  -0.00260   0.00521   0.15740
           A5          -0.00260  -0.00260   0.00521  -0.00260   0.15740
           A6           0.00521   0.00521  -0.01042   0.00521   0.00521
           D1           0.00000   0.00000   0.00000   0.00000   0.00000
           D2           0.00000   0.00000  -0.00001   0.00000   0.00000
           D3           0.00000   0.00000   0.00001   0.00000   0.00000
           D4           0.00000   0.00000   0.00000   0.00000   0.00000
                          A6        D1        D2        D3        D4
           A6           0.14958
           D1           0.00000   0.03087
           D2          -0.00001   0.00000   0.03087
           D3           0.00001   0.00000   0.00000   0.03087
           D4           0.00000   0.00000   0.00000   0.00000   0.03087
 ITU=  0  1  1  0
     Eigenvalues ---    0.03087   0.03087   0.03087   0.12695   0.16000
     Eigenvalues ---    0.16000   0.16000   0.35131   0.35131   0.35131
     Eigenvalues ---    0.38461   0.65557
 En-DIIS/RFO-DIIS IScMMF=        0 using points:     4    3
 RFO step:  Lambda=-2.33620970D-08.
 DidBck=F Rises=F RFO-DIIS coefs:    1.19308   -0.19308
 Iteration  1 RMS(Cart)=  0.00020988 RMS(Int)=  0.00000002
 Iteration  2 RMS(Cart)=  0.00000002 RMS(Int)=  0.00000000
 Variable       Old X    -DE/DX   Delta X   Delta X   Delta X     New X
                                 (Linear)    (Quad)   (Total)
    R1        2.56040  -0.00002  -0.00016   0.00010  -0.00006   2.56034
    R2        2.09020   0.00000   0.00006  -0.00006  -0.00001   2.09020
    R3        2.09020   0.00000   0.00006  -0.00006  -0.00001   2.09020
    R4        2.09020   0.00000   0.00006  -0.00006  -0.00001   2.09020
    R5        2.09020   0.00000   0.00006  -0.00006  -0.00001   2.09020
    A1        2.12729   0.00003   0.00012   0.00009   0.00021   2.12750
    A2        2.12729   0.00003   0.00012   0.00009   0.00021   2.12750
    A3        2.02860  -0.00005  -0.00024  -0.00017  -0.00041   2.02819
    A4        2.12729   0.00003   0.00012   0.00009   0.00021   2.12750
    A5        2.12729   0.00003   0.00012   0.00009   0.00021   2.12750
    A6        2.02860  -0.00005  -0.00024  -0.00017  -0.00041   2.02819
    D1        0.00000   0.00000   0.00000   0.00000   0.00000   0.00000
    D2       -3.14159   0.00000   0.00000   0.00000   0.00000   3.14159
    D3        3.14159   0.00000   0.00000   0.00000   0.00000  -3.14159
    D4        0.00000   0.00000   0.00000   0.00000   0.00000   0.00000
         Item               Value     Threshold  Converged?
 Maximum Force            0.000052     0.000450     YES
 RMS     Force            0.000024     0.000300     YES
 Maximum Displacement     0.000331     0.001800     YES
 RMS     Displacement     0.000210     0.001200     YES
 Predicted change in Energy=-3.263849D-08
 Optimization completed.
    -- Stationary point found.
                           ----------------------------
                           !   Optimized Parameters   !
                           ! (Angstroms and Degrees)  !
 --------------------------                            --------------------------
 ! Name  Definition              Value          Derivative Info.                !
 --------------------------------------------------------------------------------
 ! R1    R(1,2)                  1.3549         -DE/DX =    0.0                 !
 ! R2    R(1,3)                  1.1061         -DE/DX =    0.0                 !
 ! R3    R(1,4)                  1.1061         -DE/DX =    0.0                 !
 ! R4    R(2,5)                  1.1061         -DE/DX =    0.0                 !
 ! R5    R(2,6)                  1.1061         -DE/DX =    0.0                 !
 ! A1    A(2,1,3)              121.8848         -DE/DX =    0.0                 !
 ! A2    A(2,1,4)              121.8848         -DE/DX =    0.0                 !
 ! A3    A(3,1,4)              116.2304         -DE/DX =   -0.0001              !
 ! A4    A(1,2,5)              121.8848         -DE/DX =    0.0                 !
 ! A5    A(1,2,6)              121.8848         -DE/DX =    0.0                 !
 ! A6    A(5,2,6)              116.2304         -DE/DX =   -0.0001              !
 ! D1    D(3,1,2,5)              0.0            -DE/DX =    0.0                 !
 ! D2    D(3,1,2,6)            180.0001         -DE/DX =    0.0                 !
 ! D3    D(4,1,2,5)           -180.0001         -DE/DX =    0.0                 !
 ! D4    D(4,1,2,6)              0.0            -DE/DX =    0.0                 !
 --------------------------------------------------------------------------------
 GradGradGradGradGradGradGradGradGradGradGradGradGradGradGradGradGradGrad

                          Input orientation:                          
 ---------------------------------------------------------------------
 Center     Atomic      Atomic             Coordinates (Angstroms)
 Number     Number       Type             X           Y           Z
 ---------------------------------------------------------------------
      1          6           0       -7.665817    3.042603    0.000001
      2          6           0       -6.316133    2.923791   -0.000001
      3          1           0       -8.247785    3.094211   -0.939191
      4          1           0       -8.247849    3.093459    0.939194
      5          1           0       -5.734101    2.872933   -0.939194
      6          1           0       -5.734165    2.872182    0.939191
 ---------------------------------------------------------------------
                    Distance matrix (angstroms):
                    1          2          3          4          5
     1  C    0.000000
     2  C    1.354903   0.000000
     3  H    1.106088   2.154623   0.000000
     4  H    1.106088   2.154623   1.878385   0.000000
     5  H    2.154623   1.106088   2.523404   3.145775   0.000000
     6  H    2.154623   1.106088   3.145775   2.523404   1.878385
                    6
     6  H    0.000000
 Stoichiometry    C2H4
 Framework group  C1[X(C2H4)]
 Deg. of freedom    12
 Full point group                 C1      NOp   1
 Largest Abelian subgroup         C1      NOp   1
 Largest concise Abelian subgroup C1      NOp   1
                         Standard orientation:                         
 ---------------------------------------------------------------------
 Center     Atomic      Atomic             Coordinates (Angstroms)
 Number     Number       Type             X           Y           Z
 ---------------------------------------------------------------------
      1          6           0       -0.677452    0.000000    0.000000
      2          6           0        0.677452    0.000000    0.000000
      3          1           0       -1.261702    0.939193    0.000000
      4          1           0       -1.261702   -0.939193   -0.000001
      5          1           0        1.261702    0.939193   -0.000001
      6          1           0        1.261702   -0.939193    0.000000
 ---------------------------------------------------------------------
 Rotational constants (GHZ):    142.1224502     28.9915049     24.0795305

 **********************************************************************

            Population analysis using the SCF density.

 **********************************************************************

 Orbital symmetries:
       Occupied  (A) (A) (A) (A) (A) (A) (A) (A)
       Virtual   (A) (A) (A) (A) (A) (A)
 The electronic state is 1-A.
 Alpha  occ. eigenvalues --  -11.01994 -11.01929  -0.96572  -0.73723  -0.58867
 Alpha  occ. eigenvalues --   -0.52358  -0.45513  -0.31646
 Alpha virt. eigenvalues --    0.31363   0.61038   0.66445   0.67174   0.90826
 Alpha virt. eigenvalues --    0.96054
          Condensed to atoms (all electrons):
               1          2          3          4          5          6
     1  C    4.798500   0.592910   0.386799   0.386799  -0.023920  -0.023920
     2  C    0.592910   4.798500  -0.023920  -0.023920   0.386799   0.386799
     3  H    0.386799  -0.023920   0.604167  -0.023400  -0.003931   0.001699
     4  H    0.386799  -0.023920  -0.023400   0.604167   0.001699  -0.003931
     5  H   -0.023920   0.386799  -0.003931   0.001699   0.604167  -0.023400
     6  H   -0.023920   0.386799   0.001699  -0.003931  -0.023400   0.604167
 Mulliken charges:
               1
     1  C   -0.117169
     2  C   -0.117169
     3  H    0.058585
     4  H    0.058585
     5  H    0.058585
     6  H    0.058585
 Sum of Mulliken charges =   0.00000
 Mulliken charges with hydrogens summed into heavy atoms:
               1
     1  C    0.000000
     2  C    0.000000
 Electronic spatial extent (au):  <R**2>=             82.6679
 Charge=              0.0000 electrons
 Dipole moment (field-independent basis, Debye):
    X=              0.0000    Y=              0.0000    Z=              0.0000  Tot=              0.0000
 Quadrupole moment (field-independent basis, Debye-Ang):
   XX=            -11.8835   YY=            -11.8076   ZZ=            -13.5153
   XY=              0.0000   XZ=              0.0000   YZ=              0.0000
 Traceless Quadrupole moment (field-independent basis, Debye-Ang):
   XX=              0.5186   YY=              0.5945   ZZ=             -1.1132
   XY=              0.0000   XZ=              0.0000   YZ=              0.0000
 Octapole moment (field-independent basis, Debye-Ang**2):
  XXX=              0.0000  YYY=              0.0000  ZZZ=              0.0000  XYY=              0.0000
  XXY=              0.0000  XXZ=              0.0000  XZZ=              0.0000  YZZ=              0.0000
  YYZ=              0.0000  XYZ=              0.0000
 Hexadecapole moment (field-independent basis, Debye-Ang**3):
 XXXX=            -65.5947 YYYY=            -24.4639 ZZZZ=            -10.9375 XXXY=              0.0000
 XXXZ=              0.0000 YYYX=              0.0000 YYYZ=              0.0000 ZZZX=              0.0000
 ZZZY=              0.0000 XXYY=            -12.6309 XXZZ=            -13.3174 YYZZ=             -6.4402
 XXYZ=              0.0000 YYXZ=              0.0000 ZZXY=              0.0000
 N-N= 3.275616967471D+01 E-N=-2.448670770111D+02  KE= 7.646992921196D+01
 1\1\GINC-N0286\FOpt\RCCSD-FC\STO-3G\C2H4\GDAVIDS3\21-Feb-2017\0\\#n CC
 SD/STO-3G Opt\\Ethene CCSD STO-3G\\0,1\C,-7.665816809,3.0426028872,0.0
 000006799\C,-6.3161331127,2.9237912735,-0.0000006758\H,-8.247784602,3.
 0942111916,-0.939191325\H,-8.2478489327,3.0934594619,0.9391938312\H,-5
 .7341011297,2.872933309,-0.9391938337\H,-5.734165414,2.8721818767,0.93
 91913293\\Version=ES64L-G09RevE.01\State=1-A\HF=-77.0684285\MP2=-77.19
 51216\MP3=-77.2204212\MP4D=-77.2304559\MP4DQ=-77.2290205\MP4SDQ=-77.22
 9092\CCSD=-77.2350592\RMSD=2.642e-09\RMSF=3.144e-05\Dipole=0.,-0.00000
 03,0.\PG=C01 [X(C2H4)]\\@


 TO BEHOLD HARMS OF OUR OWN HANDS DOING,
 WHERE NONE BESIDE US WROUGHT,
 CAUSES SHARP RUING...

                                         SOPHOCLES
 Job cpu time:       0 days  0 hours  0 minutes 51.3 seconds.
 File lengths (MBytes):  RWF=     12 Int=      0 D2E=      0 Chk=      1 Scr=      1
 Normal termination of Gaussian 09 at Tue Feb 21 17:50:41 2017.
