 Entering Gaussian System, Link 0=g09
 Input=CH3_B_6Gd.com
 Output=CH3_B_6Gd.log
 Initial command:
 /sw/contrib/gaussian/g09/E01/g09/l1.exe "/scr/Gau-7452.inp" -scrdir="/scr/"
 Entering Link 1 = /sw/contrib/gaussian/g09/E01/g09/l1.exe PID=      7453.
  
 Copyright (c) 1988,1990,1992,1993,1995,1998,2003,2009,2015,
            Gaussian, Inc.  All Rights Reserved.
  
 This is part of the Gaussian(R) 09 program.  It is based on
 the Gaussian(R) 03 system (copyright 2003, Gaussian, Inc.),
 the Gaussian(R) 98 system (copyright 1998, Gaussian, Inc.),
 the Gaussian(R) 94 system (copyright 1995, Gaussian, Inc.),
 the Gaussian 92(TM) system (copyright 1992, Gaussian, Inc.),
 the Gaussian 90(TM) system (copyright 1990, Gaussian, Inc.),
 the Gaussian 88(TM) system (copyright 1988, Gaussian, Inc.),
 the Gaussian 86(TM) system (copyright 1986, Carnegie Mellon
 University), and the Gaussian 82(TM) system (copyright 1983,
 Carnegie Mellon University). Gaussian is a federally registered
 trademark of Gaussian, Inc.
  
 This software contains proprietary and confidential information,
 including trade secrets, belonging to Gaussian, Inc.
  
 This software is provided under written license and may be
 used, copied, transmitted, or stored only in accord with that
 written license.
  
 The following legend is applicable only to US Government
 contracts under FAR:
  
                    RESTRICTED RIGHTS LEGEND
  
 Use, reproduction and disclosure by the US Government is
 subject to restrictions as set forth in subparagraphs (a)
 and (c) of the Commercial Computer Software - Restricted
 Rights clause in FAR 52.227-19.
  
 Gaussian, Inc.
 340 Quinnipiac St., Bldg. 40, Wallingford CT 06492
  
  
 ---------------------------------------------------------------
 Warning -- This program may not be used in any manner that
 competes with the business of Gaussian, Inc. or will provide
 assistance to any competitor of Gaussian, Inc.  The licensee
 of this program is prohibited from giving any competitor of
 Gaussian, Inc. access to this program.  By using this program,
 the user acknowledges that Gaussian, Inc. is engaged in the
 business of creating and licensing software in the field of
 computational chemistry and represents and warrants to the
 licensee that it is not a competitor of Gaussian, Inc. and that
 it will not use this program in any manner prohibited above.
 ---------------------------------------------------------------
  

 Cite this work as:
 Gaussian 09, Revision E.01,
 M. J. Frisch, G. W. Trucks, H. B. Schlegel, G. E. Scuseria, 
 M. A. Robb, J. R. Cheeseman, G. Scalmani, V. Barone, B. Mennucci, 
 G. A. Petersson, H. Nakatsuji, M. Caricato, X. Li, H. P. Hratchian, 
 A. F. Izmaylov, J. Bloino, G. Zheng, J. L. Sonnenberg, M. Hada, 
 M. Ehara, K. Toyota, R. Fukuda, J. Hasegawa, M. Ishida, T. Nakajima, 
 Y. Honda, O. Kitao, H. Nakai, T. Vreven, J. A. Montgomery, Jr., 
 J. E. Peralta, F. Ogliaro, M. Bearpark, J. J. Heyd, E. Brothers, 
 K. N. Kudin, V. N. Staroverov, T. Keith, R. Kobayashi, J. Normand, 
 K. Raghavachari, A. Rendell, J. C. Burant, S. S. Iyengar, J. Tomasi, 
 M. Cossi, N. Rega, J. M. Millam, M. Klene, J. E. Knox, J. B. Cross, 
 V. Bakken, C. Adamo, J. Jaramillo, R. Gomperts, R. E. Stratmann, 
 O. Yazyev, A. J. Austin, R. Cammi, C. Pomelli, J. W. Ochterski, 
 R. L. Martin, K. Morokuma, V. G. Zakrzewski, G. A. Voth, 
 P. Salvador, J. J. Dannenberg, S. Dapprich, A. D. Daniels, 
 O. Farkas, J. B. Foresman, J. V. Ortiz, J. Cioslowski, 
 and D. J. Fox, Gaussian, Inc., Wallingford CT, 2013.
 
 ******************************************
 Gaussian 09:  ES64L-G09RevE.01 30-Nov-2015
                23-Feb-2017 
 ******************************************
 %NProcShared=8
 Will use up to    8 processors via shared memory.
 ---------------------
 #n B3LYP/6-31G(d) Opt
 ---------------------
 1/14=-1,18=20,19=15,26=3,38=1/1,3;
 2/9=110,12=2,17=6,18=5,40=1/2;
 3/5=1,6=6,7=1,11=2,16=1,25=1,30=1,71=1,74=-5/1,2,3;
 4//1;
 5/5=2,38=5/2;
 6/7=2,8=2,9=2,10=2,28=1/1;
 7//1,2,3,16;
 1/14=-1,18=20,19=15,26=3/3(2);
 2/9=110/2;
 99//99;
 2/9=110/2;
 3/5=1,6=6,7=1,11=2,16=1,25=1,30=1,71=1,74=-5/1,2,3;
 4/5=5,16=3,69=1/1;
 5/5=2,38=5/2;
 7//1,2,3,16;
 1/14=-1,18=20,19=15,26=3/3(-5);
 2/9=110/2;
 6/7=2,8=2,9=2,10=2,19=2,28=1/1;
 99/9=1/99;
 ---------------
 CH3_B3LYP/3-21G
 ---------------
 Symbolic Z-matrix:
 Charge =  0 Multiplicity = 1
 C                    -1.76985   1.60508   0. 
 C                    -0.94833   0.30637   0. 
 H                    -2.70278   1.46556   0.5507 
 H                    -2.01181   1.90264  -1.02275 
 H                    -1.2057    2.41255   0.47205 
 H                    -1.51248  -0.5011   -0.47205 
 H                    -0.70637   0.00881   1.02275 
 H                    -0.0154    0.44589  -0.5507 
 

 GradGradGradGradGradGradGradGradGradGradGradGradGradGradGradGradGradGrad
 Berny optimization.
 Initialization pass.
                           ----------------------------
                           !    Initial Parameters    !
                           ! (Angstroms and Degrees)  !
 --------------------------                            --------------------------
 ! Name  Definition              Value          Derivative Info.                !
 --------------------------------------------------------------------------------
 ! R1    R(1,2)                  1.5367         estimate D2E/DX2                !
 ! R2    R(1,3)                  1.0923         estimate D2E/DX2                !
 ! R3    R(1,4)                  1.0923         estimate D2E/DX2                !
 ! R4    R(1,5)                  1.0923         estimate D2E/DX2                !
 ! R5    R(2,6)                  1.0923         estimate D2E/DX2                !
 ! R6    R(2,7)                  1.0923         estimate D2E/DX2                !
 ! R7    R(2,8)                  1.0923         estimate D2E/DX2                !
 ! A1    A(2,1,3)              110.4046         estimate D2E/DX2                !
 ! A2    A(2,1,4)              110.4044         estimate D2E/DX2                !
 ! A3    A(2,1,5)              110.404          estimate D2E/DX2                !
 ! A4    A(3,1,4)              108.5221         estimate D2E/DX2                !
 ! A5    A(3,1,5)              108.5221         estimate D2E/DX2                !
 ! A6    A(4,1,5)              108.5224         estimate D2E/DX2                !
 ! A7    A(1,2,6)              110.404          estimate D2E/DX2                !
 ! A8    A(1,2,7)              110.4044         estimate D2E/DX2                !
 ! A9    A(1,2,8)              110.4046         estimate D2E/DX2                !
 ! A10   A(6,2,7)              108.5224         estimate D2E/DX2                !
 ! A11   A(6,2,8)              108.5221         estimate D2E/DX2                !
 ! A12   A(7,2,8)              108.5221         estimate D2E/DX2                !
 ! D1    D(3,1,2,6)             60.0001         estimate D2E/DX2                !
 ! D2    D(3,1,2,7)            -59.9999         estimate D2E/DX2                !
 ! D3    D(3,1,2,8)            180.0            estimate D2E/DX2                !
 ! D4    D(4,1,2,6)            -59.9999         estimate D2E/DX2                !
 ! D5    D(4,1,2,7)            180.0            estimate D2E/DX2                !
 ! D6    D(4,1,2,8)             59.9999         estimate D2E/DX2                !
 ! D7    D(5,1,2,6)           -180.0            estimate D2E/DX2                !
 ! D8    D(5,1,2,7)             59.9999         estimate D2E/DX2                !
 ! D9    D(5,1,2,8)            -60.0001         estimate D2E/DX2                !
 --------------------------------------------------------------------------------
 Trust Radius=3.00D-01 FncErr=1.00D-07 GrdErr=1.00D-06
 Number of steps in this run=     38 maximum allowed number of steps=    100.
 GradGradGradGradGradGradGradGradGradGradGradGradGradGradGradGradGradGrad

                          Input orientation:                          
 ---------------------------------------------------------------------
 Center     Atomic      Atomic             Coordinates (Angstroms)
 Number     Number       Type             X           Y           Z
 ---------------------------------------------------------------------
      1          6           0       -1.769850    1.605080    0.000000
      2          6           0       -0.948330    0.306370    0.000000
      3          1           0       -2.702780    1.465560    0.550700
      4          1           0       -2.011810    1.902640   -1.022750
      5          1           0       -1.205700    2.412550    0.472050
      6          1           0       -1.512480   -0.501100   -0.472050
      7          1           0       -0.706370    0.008810    1.022750
      8          1           0       -0.015400    0.445890   -0.550700
 ---------------------------------------------------------------------
                    Distance matrix (angstroms):
                    1          2          3          4          5
     1  C    0.000000
     2  C    1.536731   0.000000
     3  H    1.092289   2.173726   0.000000
     4  H    1.092293   2.173726   1.773196   0.000000
     5  H    1.092293   2.173721   1.773196   1.773203   0.000000
     6  H    2.173721   1.092293   2.516065   2.516062   3.078116
     7  H    2.173726   1.092293   2.516069   3.078122   2.516062
     8  H    2.173726   1.092289   3.078120   2.516069   2.516065
                    6          7          8
     6  H    0.000000
     7  H    1.773203   0.000000
     8  H    1.773196   1.773196   0.000000
 This structure is nearly, but not quite of a higher symmetry.
 Consider Symm=Loose if the higher symmetry is desired.
 Stoichiometry    C2H6
 Framework group  CI[X(C2H6)]
 Deg. of freedom     9
 Full point group                 CI      NOp   2
 Largest Abelian subgroup         CI      NOp   2
 Largest concise Abelian subgroup CI      NOp   2
                         Standard orientation:                         
 ---------------------------------------------------------------------
 Center     Atomic      Atomic             Coordinates (Angstroms)
 Number     Number       Type             X           Y           Z
 ---------------------------------------------------------------------
      1          6           0       -0.410760    0.649355    0.000000
      2          6           0        0.410760   -0.649355    0.000000
      3          1           0       -1.343690    0.509835    0.550700
      4          1           0       -0.652720    0.946915   -1.022750
      5          1           0        0.153390    1.456825    0.472050
      6          1           0       -0.153390   -1.456825   -0.472050
      7          1           0        0.652720   -0.946915    1.022750
      8          1           0        1.343690   -0.509835   -0.550700
 ---------------------------------------------------------------------
 Rotational constants (GHZ):     79.7420612     19.9566490     19.9566228
 Standard basis: 6-31G(d) (6D, 7F)
 There are    21 symmetry adapted cartesian basis functions of AG  symmetry.
 There are    21 symmetry adapted cartesian basis functions of AU  symmetry.
 There are    21 symmetry adapted basis functions of AG  symmetry.
 There are    21 symmetry adapted basis functions of AU  symmetry.
    42 basis functions,    80 primitive gaussians,    42 cartesian basis functions
     9 alpha electrons        9 beta electrons
       nuclear repulsion energy        42.1696170358 Hartrees.
 NAtoms=    8 NActive=    8 NUniq=    4 SFac= 4.00D+00 NAtFMM=   60 NAOKFM=F Big=F
 Integral buffers will be    131072 words long.
 Raffenetti 2 integral format.
 Two-electron integral symmetry is turned on.
 One-electron integrals computed using PRISM.
 NBasis=    42 RedAO= T EigKep=  5.92D-03  NBF=    21    21
 NBsUse=    42 1.00D-06 EigRej= -1.00D+00 NBFU=    21    21
 ExpMin= 1.61D-01 ExpMax= 3.05D+03 ExpMxC= 4.57D+02 IAcc=1 IRadAn=         1 AccDes= 0.00D+00
 Harris functional with IExCor=  402 and IRadAn=       1 diagonalized for initial guess.
 HarFok:  IExCor=  402 AccDes= 0.00D+00 IRadAn=         1 IDoV= 1 UseB2=F ITyADJ=14
 ICtDFT=  3500011 ScaDFX=  1.000000  1.000000  1.000000  1.000000
 FoFCou: FMM=F IPFlag=           0 FMFlag=      100000 FMFlg1=           0
         NFxFlg=           0 DoJE=T BraDBF=F KetDBF=T FulRan=T
         wScrn=  0.000000 ICntrl=     500 IOpCl=  0 I1Cent=   200000004 NGrid=           0
         NMat0=    1 NMatS0=      1 NMatT0=    0 NMatD0=    1 NMtDS0=    0 NMtDT0=    0
 Petite list used in FoFCou.
 Initial guess orbital symmetries:
       Occupied  (AG) (AU) (AG) (AU) (AU) (AU) (AG) (AG) (AG)
       Virtual   (AG) (AU) (AU) (AU) (AG) (AG) (AU) (AG) (AU) (AU)
                 (AU) (AG) (AG) (AG) (AU) (AU) (AG) (AG) (AU) (AG)
                 (AU) (AU) (AU) (AG) (AG) (AG) (AU) (AU) (AG) (AG)
                 (AU) (AG) (AU)
 The electronic state of the initial guess is 1-AG.
 Keep R1 ints in memory in symmetry-blocked form, NReq=1295700.
 Requested convergence on RMS density matrix=1.00D-08 within 128 cycles.
 Requested convergence on MAX density matrix=1.00D-06.
 Requested convergence on             energy=1.00D-06.
 No special actions if energy rises.
 Integral accuracy reduced to 1.0D-05 until final iterations.
 Initial convergence to 1.0D-05 achieved.  Increase integral accuracy.
 SCF Done:  E(RB3LYP) =  -79.8301496450     A.U. after   10 cycles
            NFock= 10  Conv=0.18D-08     -V/T= 2.0105

 **********************************************************************

            Population analysis using the SCF density.

 **********************************************************************

 Orbital symmetries:
       Occupied  (AG) (AU) (AG) (AU) (AU) (AU) (AG) (AG) (AG)
       Virtual   (AG) (AU) (AU) (AU) (AG) (AG) (AU) (AG) (AU) (AU)
                 (AG) (AG) (AU) (AU) (AU) (AG) (AG) (AG) (AU) (AG)
                 (AU) (AU) (AU) (AG) (AG) (AG) (AU) (AU) (AG) (AG)
                 (AU) (AG) (AU)
 The electronic state is 1-AG.
 Alpha  occ. eigenvalues --  -10.17090 -10.17069  -0.74770  -0.61107  -0.43224
 Alpha  occ. eigenvalues --   -0.43224  -0.35725  -0.34193  -0.34193
 Alpha virt. eigenvalues --    0.10404   0.15898   0.16674   0.16674   0.18937
 Alpha virt. eigenvalues --    0.18937   0.23834   0.51302   0.54588   0.54588
 Alpha virt. eigenvalues --    0.63103   0.63104   0.66573   0.88670   0.88670
 Alpha virt. eigenvalues --    0.90426   0.92511   0.92511   0.98433   1.06903
 Alpha virt. eigenvalues --    1.44065   1.52189   1.52189   1.93294   1.99562
 Alpha virt. eigenvalues --    1.99563   2.27943   2.27943   2.32020   2.32021
 Alpha virt. eigenvalues --    2.58791   4.14690   4.36750
          Condensed to atoms (all electrons):
               1          2          3          4          5          6
     1  C    5.014528   0.374731   0.383592   0.383591   0.383592  -0.035423
     2  C    0.374731   5.014528  -0.035423  -0.035422  -0.035423   0.383592
     3  H    0.383592  -0.035423   0.572894  -0.031510  -0.031509  -0.003706
     4  H    0.383591  -0.035422  -0.031510   0.572893  -0.031508  -0.003706
     5  H    0.383592  -0.035423  -0.031509  -0.031508   0.572890   0.004780
     6  H   -0.035423   0.383592  -0.003706  -0.003706   0.004780   0.572890
     7  H   -0.035422   0.383591  -0.003706   0.004779  -0.003706  -0.031508
     8  H   -0.035423   0.383592   0.004779  -0.003706  -0.003706  -0.031509
               7          8
     1  C   -0.035422  -0.035423
     2  C    0.383591   0.383592
     3  H   -0.003706   0.004779
     4  H    0.004779  -0.003706
     5  H   -0.003706  -0.003706
     6  H   -0.031508  -0.031509
     7  H    0.572893  -0.031510
     8  H   -0.031510   0.572894
 Mulliken charges:
               1
     1  C   -0.433767
     2  C   -0.433767
     3  H    0.144588
     4  H    0.144588
     5  H    0.144591
     6  H    0.144591
     7  H    0.144588
     8  H    0.144588
 Sum of Mulliken charges =   0.00000
 Mulliken charges with hydrogens summed into heavy atoms:
               1
     1  C    0.000000
     2  C    0.000000
 Electronic spatial extent (au):  <R**2>=            109.2674
 Charge=              0.0000 electrons
 Dipole moment (field-independent basis, Debye):
    X=              0.0000    Y=              0.0000    Z=              0.0000  Tot=              0.0000
 Quadrupole moment (field-independent basis, Debye-Ang):
   XX=            -14.8567   YY=            -15.1722   ZZ=            -14.6463
   XY=              0.3327   XZ=              0.0000   YZ=              0.0000
 Traceless Quadrupole moment (field-independent basis, Debye-Ang):
   XX=              0.0350   YY=             -0.2805   ZZ=              0.2454
   XY=              0.3327   XZ=              0.0000   YZ=              0.0000
 Octapole moment (field-independent basis, Debye-Ang**2):
  XXX=              0.0000  YYY=              0.0000  ZZZ=              0.0000  XYY=              0.0000
  XXY=              0.0000  XXZ=              0.0000  XZZ=              0.0000  YZZ=              0.0000
  YYZ=              0.0000  XYZ=              0.0000
 Hexadecapole moment (field-independent basis, Debye-Ang**3):
 XXXX=            -45.7058 YYYY=            -72.8555 ZZZZ=            -28.5353 XXXY=             13.8163
 XXXZ=             -1.3617 YYYX=             15.1851 YYYZ=              0.8614 ZZZX=              0.6355
 ZZZY=             -1.0046 XXYY=            -20.3690 XXZZ=            -12.1063 YYZZ=            -16.4990
 XXYZ=              0.1433 YYXZ=              0.7261 ZZXY=              4.2607
 N-N= 4.216961703580D+01 E-N=-2.681684259878D+02  KE= 7.900040873138D+01
 Symmetry AG   KE= 4.100966822607D+01
 Symmetry AU   KE= 3.799074050530D+01
 Calling FoFJK, ICntrl=      2127 FMM=F ISym2X=1 I1Cent= 0 IOpClX= 0 NMat=1 NMatS=1 NMatT=0.
 ***** Axes restored to original set *****
 -------------------------------------------------------------------
 Center     Atomic                   Forces (Hartrees/Bohr)
 Number     Number              X              Y              Z
 -------------------------------------------------------------------
      1        6           0.004376669   -0.006957302    0.000015621
      2        6          -0.004376669    0.006957302   -0.000015621
      3        1          -0.002399919    0.001787750    0.000687608
      4        1          -0.001546245    0.002340513   -0.001277954
      5        1          -0.000542853    0.002980338    0.000585377
      6        1           0.000542853   -0.002980338   -0.000585377
      7        1           0.001546245   -0.002340513    0.001277954
      8        1           0.002399919   -0.001787750   -0.000687608
 -------------------------------------------------------------------
 Cartesian Forces:  Max     0.006957302 RMS     0.002828572

 GradGradGradGradGradGradGradGradGradGradGradGradGradGradGradGradGradGrad
 Berny optimization.
 FormGI is forming the generalized inverse of G from B-inverse, IUseBI=4.
 Internal  Forces:  Max     0.002254723 RMS     0.001764605
 Search for a local minimum.
 Step number   1 out of a maximum of   38
 All quantities printed in internal units (Hartrees-Bohrs-Radians)
 Mixed Optimization -- RFO/linear search
 Second derivative matrix not updated -- first step.
 ITU=  0
     Eigenvalues ---    0.00280   0.05575   0.05575   0.05575   0.05575
     Eigenvalues ---    0.16000   0.16000   0.16000   0.16000   0.16000
     Eigenvalues ---    0.16000   0.28810   0.34549   0.34549   0.34549
     Eigenvalues ---    0.34549   0.34549   0.34549
 RFO step:  Lambda=-4.48570224D-04 EMin= 2.80064107D-03
 Linear search not attempted -- first point.
 Iteration  1 RMS(Cart)=  0.01335018 RMS(Int)=  0.00009304
 Iteration  2 RMS(Cart)=  0.00007568 RMS(Int)=  0.00005882
 Iteration  3 RMS(Cart)=  0.00000001 RMS(Int)=  0.00005882
 ClnCor:  largest displacement from symmetrization is 4.84D-09 for atom     7.
 Variable       Old X    -DE/DX   Delta X   Delta X   Delta X     New X
                                 (Linear)    (Quad)   (Total)
    R1        2.90400   0.00019   0.00000   0.00065   0.00065   2.90465
    R2        2.06413   0.00217   0.00000   0.00626   0.00626   2.07039
    R3        2.06413   0.00218   0.00000   0.00630   0.00630   2.07043
    R4        2.06413   0.00218   0.00000   0.00629   0.00629   2.07043
    R5        2.06413   0.00218   0.00000   0.00629   0.00629   2.07043
    R6        2.06413   0.00218   0.00000   0.00630   0.00630   2.07043
    R7        2.06413   0.00217   0.00000   0.00626   0.00626   2.07039
    A1        1.92692   0.00217   0.00000   0.01357   0.01348   1.94040
    A2        1.92692   0.00217   0.00000   0.01354   0.01345   1.94037
    A3        1.92691   0.00218   0.00000   0.01358   0.01349   1.94040
    A4        1.89407  -0.00225   0.00000  -0.01398  -0.01407   1.88000
    A5        1.89407  -0.00225   0.00000  -0.01401  -0.01409   1.87997
    A6        1.89407  -0.00225   0.00000  -0.01409  -0.01417   1.87990
    A7        1.92691   0.00218   0.00000   0.01358   0.01349   1.94040
    A8        1.92692   0.00217   0.00000   0.01354   0.01345   1.94037
    A9        1.92692   0.00217   0.00000   0.01357   0.01348   1.94040
   A10        1.89407  -0.00225   0.00000  -0.01409  -0.01417   1.87990
   A11        1.89407  -0.00225   0.00000  -0.01401  -0.01409   1.87997
   A12        1.89407  -0.00225   0.00000  -0.01398  -0.01407   1.88000
    D1        1.04720   0.00000   0.00000  -0.00004  -0.00004   1.04716
    D2       -1.04720   0.00000   0.00000   0.00004   0.00004  -1.04715
    D3        3.14159   0.00000   0.00000   0.00000   0.00000   3.14159
    D4       -1.04720   0.00000   0.00000  -0.00008  -0.00008  -1.04728
    D5        3.14159   0.00000   0.00000   0.00000   0.00000   3.14159
    D6        1.04720   0.00000   0.00000  -0.00004  -0.00004   1.04715
    D7        3.14159   0.00000   0.00000   0.00000   0.00000   3.14159
    D8        1.04720   0.00000   0.00000   0.00008   0.00008   1.04728
    D9       -1.04720   0.00000   0.00000   0.00004   0.00004  -1.04716
         Item               Value     Threshold  Converged?
 Maximum Force            0.002255     0.000450     NO 
 RMS     Force            0.001765     0.000300     NO 
 Maximum Displacement     0.025948     0.001800     NO 
 RMS     Displacement     0.013367     0.001200     NO 
 Predicted change in Energy=-2.248443D-04
 GradGradGradGradGradGradGradGradGradGradGradGradGradGradGradGradGradGrad

                          Input orientation:                          
 ---------------------------------------------------------------------
 Center     Atomic      Atomic             Coordinates (Angstroms)
 Number     Number       Type             X           Y           Z
 ---------------------------------------------------------------------
      1          6           0       -1.769949    1.605221    0.000012
      2          6           0       -0.948231    0.306229   -0.000012
      3          1           0       -2.709348    1.479291    0.549570
      4          1           0       -2.019793    1.915490   -1.020627
      5          1           0       -1.215388    2.424351    0.471053
      6          1           0       -1.502792   -0.512901   -0.471053
      7          1           0       -0.698387   -0.004040    1.020627
      8          1           0       -0.008832    0.432159   -0.549570
 ---------------------------------------------------------------------
                    Distance matrix (angstroms):
                    1          2          3          4          5
     1  C    0.000000
     2  C    1.537076   0.000000
     3  H    1.095601   2.186241   0.000000
     4  H    1.095624   2.186235   1.769540   0.000000
     5  H    1.095624   2.186256   1.769525   1.769497   0.000000
     6  H    2.186256   1.095624   2.542887   2.542912   3.098001
     7  H    2.186235   1.095624   2.542858   3.097972   2.542912
     8  H    2.186241   1.095601   3.097963   2.542858   2.542887
                    6          7          8
     6  H    0.000000
     7  H    1.769497   0.000000
     8  H    1.769525   1.769540   0.000000
 Stoichiometry    C2H6
 Framework group  CI[X(C2H6)]
 Deg. of freedom     9
 Full point group                 CI      NOp   2
 Largest Abelian subgroup         CI      NOp   2
 Largest concise Abelian subgroup CI      NOp   2
                         Standard orientation:                         
 ---------------------------------------------------------------------
 Center     Atomic      Atomic             Coordinates (Angstroms)
 Number     Number       Type             X           Y           Z
 ---------------------------------------------------------------------
      1          6           0       -0.410859    0.649496    0.000012
      2          6           0        0.410859   -0.649496   -0.000012
      3          1           0       -1.350258    0.523566    0.549570
      4          1           0       -0.660703    0.959765   -1.020627
      5          1           0        0.143702    1.468626    0.471053
      6          1           0       -0.143702   -1.468626   -0.471053
      7          1           0        0.660703   -0.959765    1.020627
      8          1           0        1.350258   -0.523566   -0.549570
 ---------------------------------------------------------------------
 Rotational constants (GHZ):     80.0738580     19.7965234     19.7963810
 Standard basis: 6-31G(d) (6D, 7F)
 There are    21 symmetry adapted cartesian basis functions of AG  symmetry.
 There are    21 symmetry adapted cartesian basis functions of AU  symmetry.
 There are    21 symmetry adapted basis functions of AG  symmetry.
 There are    21 symmetry adapted basis functions of AU  symmetry.
    42 basis functions,    80 primitive gaussians,    42 cartesian basis functions
     9 alpha electrons        9 beta electrons
       nuclear repulsion energy        42.0508313792 Hartrees.
 NAtoms=    8 NActive=    8 NUniq=    4 SFac= 4.00D+00 NAtFMM=   60 NAOKFM=F Big=F
 Integral buffers will be    131072 words long.
 Raffenetti 2 integral format.
 Two-electron integral symmetry is turned on.
 One-electron integrals computed using PRISM.
 NBasis=    42 RedAO= T EigKep=  6.06D-03  NBF=    21    21
 NBsUse=    42 1.00D-06 EigRej= -1.00D+00 NBFU=    21    21
 Initial guess from the checkpoint file:  "/scr/Gau-7453.chk"
 B after Tr=     0.000000    0.000000    0.000000
         Rot=    1.000000   -0.000002   -0.000001   -0.000002 Ang=   0.00 deg.
 Initial guess orbital symmetries:
       Occupied  (AG) (AU) (AG) (AU) (AU) (AU) (AG) (AG) (AG)
       Virtual   (AG) (AG) (AG) (AG) (AG) (AG) (AG) (AG) (AG) (AG)
                 (AG) (AG) (AG) (AG) (AG) (AG) (AU) (AU) (AU) (AU)
                 (AU) (AU) (AU) (AU) (AU) (AU) (AU) (AU) (AU) (AU)
                 (AU) (AU) (AU)
 ExpMin= 1.61D-01 ExpMax= 3.05D+03 ExpMxC= 4.57D+02 IAcc=1 IRadAn=         1 AccDes= 0.00D+00
 Harris functional with IExCor=  402 and IRadAn=       1 diagonalized for initial guess.
 HarFok:  IExCor=  402 AccDes= 0.00D+00 IRadAn=         1 IDoV= 1 UseB2=F ITyADJ=14
 ICtDFT=  3500011 ScaDFX=  1.000000  1.000000  1.000000  1.000000
 FoFCou: FMM=F IPFlag=           0 FMFlag=      100000 FMFlg1=           0
         NFxFlg=           0 DoJE=T BraDBF=F KetDBF=T FulRan=T
         wScrn=  0.000000 ICntrl=     500 IOpCl=  0 I1Cent=   200000004 NGrid=           0
         NMat0=    1 NMatS0=      1 NMatT0=    0 NMatD0=    1 NMtDS0=    0 NMtDT0=    0
 Petite list used in FoFCou.
 Keep R1 ints in memory in symmetry-blocked form, NReq=1295700.
 Requested convergence on RMS density matrix=1.00D-08 within 128 cycles.
 Requested convergence on MAX density matrix=1.00D-06.
 Requested convergence on             energy=1.00D-06.
 No special actions if energy rises.
 Integral accuracy reduced to 1.0D-05 until final iterations.
 Initial convergence to 1.0D-05 achieved.  Increase integral accuracy.
 SCF Done:  E(RB3LYP) =  -79.8303964502     A.U. after    9 cycles
            NFock=  9  Conv=0.15D-08     -V/T= 2.0109
 Calling FoFJK, ICntrl=      2127 FMM=F ISym2X=1 I1Cent= 0 IOpClX= 0 NMat=1 NMatS=1 NMatT=0.
 ***** Axes restored to original set *****
 -------------------------------------------------------------------
 Center     Atomic                   Forces (Hartrees/Bohr)
 Number     Number              X              Y              Z
 -------------------------------------------------------------------
      1        6           0.002044430   -0.003238175    0.000000173
      2        6          -0.002044430    0.003238175   -0.000000173
      3        1          -0.000256246    0.000202425    0.000069774
      4        1          -0.000173680    0.000255810   -0.000123471
      5        1          -0.000073651    0.000320320    0.000057445
      6        1           0.000073651   -0.000320320   -0.000057445
      7        1           0.000173680   -0.000255810    0.000123471
      8        1           0.000256246   -0.000202425   -0.000069774
 -------------------------------------------------------------------
 Cartesian Forces:  Max     0.003238175 RMS     0.001118003

 GradGradGradGradGradGradGradGradGradGradGradGradGradGradGradGradGradGrad
 Berny optimization.
 Using GEDIIS/GDIIS optimizer.
 FormGI is forming the generalized inverse of G from B-inverse, IUseBI=4.
 Internal  Forces:  Max     0.002902378 RMS     0.000580983
 Search for a local minimum.
 Step number   2 out of a maximum of   38
 All quantities printed in internal units (Hartrees-Bohrs-Radians)
 Mixed Optimization -- En-DIIS/RFO-DIIS
 Update second derivatives using D2CorX and points    1    2
 DE= -2.47D-04 DEPred=-2.25D-04 R= 1.10D+00
 TightC=F SS=  1.41D+00  RLast= 5.02D-02 DXNew= 5.0454D-01 1.5064D-01
 Trust test= 1.10D+00 RLast= 5.02D-02 DXMaxT set to 3.00D-01
 ITU=  1  0
 Use linear search instead of GDIIS.
     Eigenvalues ---    0.00280   0.05433   0.05433   0.05433   0.05433
     Eigenvalues ---    0.13006   0.16000   0.16000   0.16000   0.16000
     Eigenvalues ---    0.16000   0.30153   0.34549   0.34549   0.34549
     Eigenvalues ---    0.34549   0.34549   0.36435
 RFO step:  Lambda=-3.71535831D-05 EMin= 2.80064107D-03
 Quartic linear search produced a step of  0.11938.
 Iteration  1 RMS(Cart)=  0.00155912 RMS(Int)=  0.00000993
 Iteration  2 RMS(Cart)=  0.00000443 RMS(Int)=  0.00000926
 Iteration  3 RMS(Cart)=  0.00000000 RMS(Int)=  0.00000926
 ClnCor:  largest displacement from symmetrization is 4.79D-09 for atom     6.
 Variable       Old X    -DE/DX   Delta X   Delta X   Delta X     New X
                                 (Linear)    (Quad)   (Total)
    R1        2.90465  -0.00290   0.00008  -0.01130  -0.01122   2.89343
    R2        2.07039   0.00023   0.00075   0.00052   0.00127   2.07165
    R3        2.07043   0.00023   0.00075   0.00051   0.00126   2.07169
    R4        2.07043   0.00023   0.00075   0.00051   0.00126   2.07169
    R5        2.07043   0.00023   0.00075   0.00051   0.00126   2.07169
    R6        2.07043   0.00023   0.00075   0.00051   0.00126   2.07169
    R7        2.07039   0.00023   0.00075   0.00052   0.00127   2.07165
    A1        1.94040   0.00024   0.00161   0.00120   0.00280   1.94320
    A2        1.94037   0.00024   0.00161   0.00118   0.00277   1.94314
    A3        1.94040   0.00024   0.00161   0.00117   0.00277   1.94317
    A4        1.88000  -0.00025  -0.00168  -0.00126  -0.00296   1.87704
    A5        1.87997  -0.00025  -0.00168  -0.00126  -0.00296   1.87702
    A6        1.87990  -0.00025  -0.00169  -0.00125  -0.00296   1.87694
    A7        1.94040   0.00024   0.00161   0.00117   0.00277   1.94317
    A8        1.94037   0.00024   0.00161   0.00118   0.00277   1.94314
    A9        1.94040   0.00024   0.00161   0.00120   0.00280   1.94320
   A10        1.87990  -0.00025  -0.00169  -0.00125  -0.00296   1.87694
   A11        1.87997  -0.00025  -0.00168  -0.00126  -0.00296   1.87702
   A12        1.88000  -0.00025  -0.00168  -0.00126  -0.00296   1.87704
    D1        1.04716   0.00000   0.00000   0.00000  -0.00001   1.04716
    D2       -1.04715   0.00000   0.00001   0.00000   0.00001  -1.04714
    D3        3.14159   0.00000   0.00000   0.00000   0.00000   3.14159
    D4       -1.04728   0.00000  -0.00001  -0.00001  -0.00002  -1.04729
    D5        3.14159   0.00000   0.00000   0.00000   0.00000   3.14159
    D6        1.04715   0.00000  -0.00001   0.00000  -0.00001   1.04714
    D7        3.14159   0.00000   0.00000   0.00000   0.00000   3.14159
    D8        1.04728   0.00000   0.00001   0.00001   0.00002   1.04729
    D9       -1.04716   0.00000   0.00000   0.00000   0.00001  -1.04716
         Item               Value     Threshold  Converged?
 Maximum Force            0.002902     0.000450     NO 
 RMS     Force            0.000581     0.000300     NO 
 Maximum Displacement     0.004747     0.001800     NO 
 RMS     Displacement     0.001561     0.001200     NO 
 Predicted change in Energy=-2.127092D-05
 GradGradGradGradGradGradGradGradGradGradGradGradGradGradGradGradGradGrad

                          Input orientation:                          
 ---------------------------------------------------------------------
 Center     Atomic      Atomic             Coordinates (Angstroms)
 Number     Number       Type             X           Y           Z
 ---------------------------------------------------------------------
      1          6           0       -1.768367    1.602709    0.000015
      2          6           0       -0.949813    0.308741   -0.000015
      3          1           0       -2.709073    1.479609    0.549313
      4          1           0       -2.019834    1.915594   -1.020144
      5          1           0       -1.215808    2.424213    0.470831
      6          1           0       -1.502372   -0.512763   -0.470831
      7          1           0       -0.698346   -0.004144    1.020144
      8          1           0       -0.009107    0.431841   -0.549313
 ---------------------------------------------------------------------
                    Distance matrix (angstroms):
                    1          2          3          4          5
     1  C    0.000000
     2  C    1.531138   0.000000
     3  H    1.096271   2.183504   0.000000
     4  H    1.096292   2.183480   1.768708   0.000000
     5  H    1.096293   2.183500   1.768694   1.768660   0.000000
     6  H    2.183500   1.096293   2.542906   2.542918   3.097528
     7  H    2.183480   1.096292   2.542878   3.097499   2.542918
     8  H    2.183504   1.096271   3.097518   2.542878   2.542906
                    6          7          8
     6  H    0.000000
     7  H    1.768660   0.000000
     8  H    1.768694   1.768708   0.000000
 Stoichiometry    C2H6
 Framework group  CI[X(C2H6)]
 Deg. of freedom     9
 Full point group                 CI      NOp   2
 Largest Abelian subgroup         CI      NOp   2
 Largest concise Abelian subgroup CI      NOp   2
                         Standard orientation:                         
 ---------------------------------------------------------------------
 Center     Atomic      Atomic             Coordinates (Angstroms)
 Number     Number       Type             X           Y           Z
 ---------------------------------------------------------------------
      1          6           0       -0.409277    0.646984    0.000015
      2          6           0        0.409277   -0.646984   -0.000015
      3          1           0       -1.349983    0.523884    0.549313
      4          1           0       -0.660744    0.959869   -1.020144
      5          1           0        0.143282    1.468488    0.470831
      6          1           0       -0.143282   -1.468488   -0.470831
      7          1           0        0.660744   -0.959869    1.020144
      8          1           0        1.349983   -0.523884   -0.549313
 ---------------------------------------------------------------------
 Rotational constants (GHZ):     80.1493245     19.8827344     19.8825756
 Standard basis: 6-31G(d) (6D, 7F)
 There are    21 symmetry adapted cartesian basis functions of AG  symmetry.
 There are    21 symmetry adapted cartesian basis functions of AU  symmetry.
 There are    21 symmetry adapted basis functions of AG  symmetry.
 There are    21 symmetry adapted basis functions of AU  symmetry.
    42 basis functions,    80 primitive gaussians,    42 cartesian basis functions
     9 alpha electrons        9 beta electrons
       nuclear repulsion energy        42.1001675465 Hartrees.
 NAtoms=    8 NActive=    8 NUniq=    4 SFac= 4.00D+00 NAtFMM=   60 NAOKFM=F Big=F
 Integral buffers will be    131072 words long.
 Raffenetti 2 integral format.
 Two-electron integral symmetry is turned on.
 One-electron integrals computed using PRISM.
 NBasis=    42 RedAO= T EigKep=  6.01D-03  NBF=    21    21
 NBsUse=    42 1.00D-06 EigRej= -1.00D+00 NBFU=    21    21
 Initial guess from the checkpoint file:  "/scr/Gau-7453.chk"
 B after Tr=     0.000000    0.000000    0.000000
         Rot=    1.000000    0.000000    0.000000   -0.000001 Ang=   0.00 deg.
 Initial guess orbital symmetries:
       Occupied  (AG) (AU) (AG) (AU) (AU) (AU) (AG) (AG) (AG)
       Virtual   (AG) (AG) (AG) (AG) (AG) (AG) (AG) (AG) (AG) (AG)
                 (AG) (AG) (AG) (AG) (AG) (AG) (AU) (AU) (AU) (AU)
                 (AU) (AU) (AU) (AU) (AU) (AU) (AU) (AU) (AU) (AU)
                 (AU) (AU) (AU)
 Keep R1 ints in memory in symmetry-blocked form, NReq=1295700.
 Requested convergence on RMS density matrix=1.00D-08 within 128 cycles.
 Requested convergence on MAX density matrix=1.00D-06.
 Requested convergence on             energy=1.00D-06.
 No special actions if energy rises.
 SCF Done:  E(RB3LYP) =  -79.8304194721     A.U. after    6 cycles
            NFock=  6  Conv=0.92D-08     -V/T= 2.0109
 Calling FoFJK, ICntrl=      2127 FMM=F ISym2X=1 I1Cent= 0 IOpClX= 0 NMat=1 NMatS=1 NMatT=0.
 ***** Axes restored to original set *****
 -------------------------------------------------------------------
 Center     Atomic                   Forces (Hartrees/Bohr)
 Number     Number              X              Y              Z
 -------------------------------------------------------------------
      1        6           0.000129004   -0.000201845   -0.000001597
      2        6          -0.000129004    0.000201845    0.000001597
      3        1           0.000071569    0.000027222   -0.000047540
      4        1           0.000006662   -0.000012039    0.000093186
      5        1          -0.000064388   -0.000055632   -0.000042528
      6        1           0.000064388    0.000055632    0.000042528
      7        1          -0.000006662    0.000012039   -0.000093186
      8        1          -0.000071569   -0.000027222    0.000047540
 -------------------------------------------------------------------
 Cartesian Forces:  Max     0.000201845 RMS     0.000083383

 GradGradGradGradGradGradGradGradGradGradGradGradGradGradGradGradGradGrad
 Berny optimization.
 Using GEDIIS/GDIIS optimizer.
 FormGI is forming the generalized inverse of G from B-inverse, IUseBI=4.
 Internal  Forces:  Max     0.000281130 RMS     0.000069077
 Search for a local minimum.
 Step number   3 out of a maximum of   38
 All quantities printed in internal units (Hartrees-Bohrs-Radians)
 Mixed Optimization -- En-DIIS/RFO-DIIS
 Swapping is turned off.
 Update second derivatives using D2CorX and points    1    2    3
 DE= -2.30D-05 DEPred=-2.13D-05 R= 1.08D+00
 TightC=F SS=  1.41D+00  RLast= 1.53D-02 DXNew= 5.0454D-01 4.5925D-02
 Trust test= 1.08D+00 RLast= 1.53D-02 DXMaxT set to 3.00D-01
 ITU=  1  1  0
     Eigenvalues ---    0.00280   0.05404   0.05404   0.05404   0.05404
     Eigenvalues ---    0.12316   0.16000   0.16000   0.16000   0.16000
     Eigenvalues ---    0.16000   0.30067   0.34549   0.34549   0.34549
     Eigenvalues ---    0.34549   0.34549   0.36161
 En-DIIS/RFO-DIIS IScMMF=        0 using points:     3    2
 RFO step:  Lambda=-2.51236004D-07.
 DidBck=F Rises=F RFO-DIIS coefs:    1.08035   -0.08035
 Iteration  1 RMS(Cart)=  0.00024562 RMS(Int)=  0.00000022
 Iteration  2 RMS(Cart)=  0.00000007 RMS(Int)=  0.00000021
 ClnCor:  largest displacement from symmetrization is 8.70D-09 for atom     7.
 Variable       Old X    -DE/DX   Delta X   Delta X   Delta X     New X
                                 (Linear)    (Quad)   (Total)
    R1        2.89343  -0.00028  -0.00090  -0.00020  -0.00110   2.89233
    R2        2.07165  -0.00009   0.00010  -0.00032  -0.00022   2.07143
    R3        2.07169  -0.00009   0.00010  -0.00033  -0.00023   2.07147
    R4        2.07169  -0.00009   0.00010  -0.00033  -0.00022   2.07147
    R5        2.07169  -0.00009   0.00010  -0.00033  -0.00022   2.07147
    R6        2.07169  -0.00009   0.00010  -0.00033  -0.00023   2.07147
    R7        2.07165  -0.00009   0.00010  -0.00032  -0.00022   2.07143
    A1        1.94320   0.00002   0.00022   0.00003   0.00026   1.94346
    A2        1.94314   0.00002   0.00022   0.00004   0.00026   1.94341
    A3        1.94317   0.00002   0.00022   0.00004   0.00026   1.94343
    A4        1.87704  -0.00002  -0.00024  -0.00004  -0.00028   1.87676
    A5        1.87702  -0.00002  -0.00024  -0.00004  -0.00028   1.87674
    A6        1.87694  -0.00002  -0.00024  -0.00003  -0.00027   1.87667
    A7        1.94317   0.00002   0.00022   0.00004   0.00026   1.94343
    A8        1.94314   0.00002   0.00022   0.00004   0.00026   1.94341
    A9        1.94320   0.00002   0.00022   0.00003   0.00026   1.94346
   A10        1.87694  -0.00002  -0.00024  -0.00003  -0.00027   1.87667
   A11        1.87702  -0.00002  -0.00024  -0.00004  -0.00028   1.87674
   A12        1.87704  -0.00002  -0.00024  -0.00004  -0.00028   1.87676
    D1        1.04716   0.00000   0.00000   0.00001   0.00001   1.04716
    D2       -1.04714   0.00000   0.00000  -0.00001  -0.00001  -1.04715
    D3        3.14159   0.00000   0.00000   0.00000   0.00000   3.14159
    D4       -1.04729   0.00000   0.00000   0.00001   0.00001  -1.04728
    D5        3.14159   0.00000   0.00000   0.00000   0.00000   3.14159
    D6        1.04714   0.00000   0.00000   0.00001   0.00001   1.04715
    D7        3.14159   0.00000   0.00000   0.00000   0.00000   3.14159
    D8        1.04729   0.00000   0.00000  -0.00001  -0.00001   1.04728
    D9       -1.04716   0.00000   0.00000  -0.00001  -0.00001  -1.04716
         Item               Value     Threshold  Converged?
 Maximum Force            0.000281     0.000450     YES
 RMS     Force            0.000069     0.000300     YES
 Maximum Displacement     0.000464     0.001800     YES
 RMS     Displacement     0.000246     0.001200     YES
 Predicted change in Energy=-2.489218D-07
 Optimization completed.
    -- Stationary point found.
                           ----------------------------
                           !   Optimized Parameters   !
                           ! (Angstroms and Degrees)  !
 --------------------------                            --------------------------
 ! Name  Definition              Value          Derivative Info.                !
 --------------------------------------------------------------------------------
 ! R1    R(1,2)                  1.5311         -DE/DX =   -0.0003              !
 ! R2    R(1,3)                  1.0963         -DE/DX =   -0.0001              !
 ! R3    R(1,4)                  1.0963         -DE/DX =   -0.0001              !
 ! R4    R(1,5)                  1.0963         -DE/DX =   -0.0001              !
 ! R5    R(2,6)                  1.0963         -DE/DX =   -0.0001              !
 ! R6    R(2,7)                  1.0963         -DE/DX =   -0.0001              !
 ! R7    R(2,8)                  1.0963         -DE/DX =   -0.0001              !
 ! A1    A(2,1,3)              111.3372         -DE/DX =    0.0                 !
 ! A2    A(2,1,4)              111.334          -DE/DX =    0.0                 !
 ! A3    A(2,1,5)              111.3355         -DE/DX =    0.0                 !
 ! A4    A(3,1,4)              107.5466         -DE/DX =    0.0                 !
 ! A5    A(3,1,5)              107.5453         -DE/DX =    0.0                 !
 ! A6    A(4,1,5)              107.5408         -DE/DX =    0.0                 !
 ! A7    A(1,2,6)              111.3355         -DE/DX =    0.0                 !
 ! A8    A(1,2,7)              111.334          -DE/DX =    0.0                 !
 ! A9    A(1,2,8)              111.3372         -DE/DX =    0.0                 !
 ! A10   A(6,2,7)              107.5408         -DE/DX =    0.0                 !
 ! A11   A(6,2,8)              107.5453         -DE/DX =    0.0                 !
 ! A12   A(7,2,8)              107.5466         -DE/DX =    0.0                 !
 ! D1    D(3,1,2,6)             59.9976         -DE/DX =    0.0                 !
 ! D2    D(3,1,2,7)            -59.9969         -DE/DX =    0.0                 !
 ! D3    D(3,1,2,8)            180.0            -DE/DX =    0.0                 !
 ! D4    D(4,1,2,6)            -60.0055         -DE/DX =    0.0                 !
 ! D5    D(4,1,2,7)            180.0            -DE/DX =    0.0                 !
 ! D6    D(4,1,2,8)             59.9969         -DE/DX =    0.0                 !
 ! D7    D(5,1,2,6)            180.0            -DE/DX =    0.0                 !
 ! D8    D(5,1,2,7)             60.0055         -DE/DX =    0.0                 !
 ! D9    D(5,1,2,8)            -59.9976         -DE/DX =    0.0                 !
 --------------------------------------------------------------------------------
 GradGradGradGradGradGradGradGradGradGradGradGradGradGradGradGradGradGrad

                          Input orientation:                          
 ---------------------------------------------------------------------
 Center     Atomic      Atomic             Coordinates (Angstroms)
 Number     Number       Type             X           Y           Z
 ---------------------------------------------------------------------
      1          6           0       -1.768367    1.602709    0.000015
      2          6           0       -0.949813    0.308741   -0.000015
      3          1           0       -2.709073    1.479609    0.549313
      4          1           0       -2.019834    1.915594   -1.020144
      5          1           0       -1.215808    2.424213    0.470831
      6          1           0       -1.502372   -0.512763   -0.470831
      7          1           0       -0.698346   -0.004144    1.020144
      8          1           0       -0.009107    0.431841   -0.549313
 ---------------------------------------------------------------------
                    Distance matrix (angstroms):
                    1          2          3          4          5
     1  C    0.000000
     2  C    1.531138   0.000000
     3  H    1.096271   2.183504   0.000000
     4  H    1.096292   2.183480   1.768708   0.000000
     5  H    1.096293   2.183500   1.768694   1.768660   0.000000
     6  H    2.183500   1.096293   2.542906   2.542918   3.097528
     7  H    2.183480   1.096292   2.542878   3.097499   2.542918
     8  H    2.183504   1.096271   3.097518   2.542878   2.542906
                    6          7          8
     6  H    0.000000
     7  H    1.768660   0.000000
     8  H    1.768694   1.768708   0.000000
 Stoichiometry    C2H6
 Framework group  CI[X(C2H6)]
 Deg. of freedom     9
 Full point group                 CI      NOp   2
 Largest Abelian subgroup         CI      NOp   2
 Largest concise Abelian subgroup CI      NOp   2
                         Standard orientation:                         
 ---------------------------------------------------------------------
 Center     Atomic      Atomic             Coordinates (Angstroms)
 Number     Number       Type             X           Y           Z
 ---------------------------------------------------------------------
      1          6           0       -0.409277    0.646984    0.000015
      2          6           0        0.409277   -0.646984   -0.000015
      3          1           0       -1.349983    0.523884    0.549313
      4          1           0       -0.660744    0.959869   -1.020144
      5          1           0        0.143282    1.468488    0.470831
      6          1           0       -0.143282   -1.468488   -0.470831
      7          1           0        0.660744   -0.959869    1.020144
      8          1           0        1.349983   -0.523884   -0.549313
 ---------------------------------------------------------------------
 Rotational constants (GHZ):     80.1493245     19.8827344     19.8825756

 **********************************************************************

            Population analysis using the SCF density.

 **********************************************************************

 Orbital symmetries:
       Occupied  (AG) (AU) (AG) (AU) (AU) (AU) (AG) (AG) (AG)
       Virtual   (AG) (AU) (AU) (AU) (AG) (AG) (AU) (AG) (AU) (AU)
                 (AG) (AG) (AU) (AU) (AU) (AG) (AG) (AG) (AU) (AG)
                 (AU) (AU) (AU) (AG) (AG) (AG) (AU) (AU) (AG) (AG)
                 (AU) (AG) (AU)
 The electronic state is 1-AG.
 Alpha  occ. eigenvalues --  -10.17244 -10.17223  -0.74729  -0.61193  -0.43004
 Alpha  occ. eigenvalues --   -0.43003  -0.36268  -0.34012  -0.34011
 Alpha virt. eigenvalues --    0.10474   0.15600   0.16369   0.16369   0.19016
 Alpha virt. eigenvalues --    0.19017   0.24229   0.51329   0.54375   0.54376
 Alpha virt. eigenvalues --    0.63679   0.63682   0.66817   0.88299   0.88301
 Alpha virt. eigenvalues --    0.90624   0.91954   0.91956   0.97913   1.06591
 Alpha virt. eigenvalues --    1.43923   1.52620   1.52623   1.93180   1.98098
 Alpha virt. eigenvalues --    1.98103   2.27037   2.27039   2.33252   2.33256
 Alpha virt. eigenvalues --    2.58693   4.14466   4.36585
          Condensed to atoms (all electrons):
               1          2          3          4          5          6
     1  C    5.012208   0.376008   0.382740   0.382736   0.382737  -0.034541
     2  C    0.376008   5.012208  -0.034541  -0.034543  -0.034541   0.382737
     3  H    0.382740  -0.034541   0.574825  -0.032345  -0.032347  -0.003619
     4  H    0.382736  -0.034543  -0.032345   0.574844  -0.032351  -0.003620
     5  H    0.382737  -0.034541  -0.032347  -0.032351   0.574841   0.004633
     6  H   -0.034541   0.382737  -0.003619  -0.003620   0.004633   0.574841
     7  H   -0.034543   0.382736  -0.003619   0.004634  -0.003620  -0.032351
     8  H   -0.034541   0.382740   0.004633  -0.003619  -0.003619  -0.032347
               7          8
     1  C   -0.034543  -0.034541
     2  C    0.382736   0.382740
     3  H   -0.003619   0.004633
     4  H    0.004634  -0.003619
     5  H   -0.003620  -0.003619
     6  H   -0.032351  -0.032347
     7  H    0.574844  -0.032345
     8  H   -0.032345   0.574825
 Mulliken charges:
               1
     1  C   -0.432805
     2  C   -0.432805
     3  H    0.144273
     4  H    0.144264
     5  H    0.144268
     6  H    0.144268
     7  H    0.144264
     8  H    0.144273
 Sum of Mulliken charges =   0.00000
 Mulliken charges with hydrogens summed into heavy atoms:
               1
     1  C    0.000000
     2  C    0.000000
 Electronic spatial extent (au):  <R**2>=            109.7148
 Charge=              0.0000 electrons
 Dipole moment (field-independent basis, Debye):
    X=              0.0000    Y=              0.0000    Z=              0.0000  Tot=              0.0000
 Quadrupole moment (field-independent basis, Debye-Ang):
   XX=            -14.8624   YY=            -15.0847   ZZ=            -14.7142
   XY=              0.2345   XZ=             -0.0002   YZ=             -0.0001
 Traceless Quadrupole moment (field-independent basis, Debye-Ang):
   XX=              0.0247   YY=             -0.1976   ZZ=              0.1729
   XY=              0.2345   XZ=             -0.0002   YZ=             -0.0001
 Octapole moment (field-independent basis, Debye-Ang**2):
  XXX=              0.0000  YYY=              0.0000  ZZZ=              0.0000  XYY=              0.0000
  XXY=              0.0000  XXZ=              0.0000  XZZ=              0.0000  YZZ=              0.0000
  YYZ=              0.0000  XYZ=              0.0000
 Hexadecapole moment (field-independent basis, Debye-Ang**3):
 XXXX=            -45.8776 YYYY=            -73.0545 ZZZZ=            -28.6670 XXXY=             13.8413
 XXXZ=             -1.3621 YYYX=             15.1893 YYYZ=              0.8612 ZZZX=              0.6357
 ZZZY=             -1.0052 XXYY=            -20.4196 XXZZ=            -12.1583 YYZZ=            -16.5635
 XXYZ=              0.1435 YYXZ=              0.7263 ZZXY=              4.2737
 N-N= 4.210016754653D+01 E-N=-2.680050727074D+02  KE= 7.897316344789D+01
 Symmetry AG   KE= 4.099922455764D+01
 Symmetry AU   KE= 3.797393889025D+01
 1\1\GINC-N0297\FOpt\RB3LYP\6-31G(d)\C2H6\TAIYUPAN\23-Feb-2017\0\\#n B3
 LYP/6-31G(d) Opt\\CH3_B3LYP/3-21G\\0,1\C,-1.7683670128,1.6027090054,0.
 0000147557\C,-0.9498129872,0.3087409946,-0.0000147557\H,-2.7090731535,
 1.4796089756,0.5493130556\H,-2.0198343126,1.9155937914,-1.0201442602\H
 ,-1.2158080913,2.4242134362,0.4708309375\H,-1.5023719087,-0.5127634362
 ,-0.4708309375\H,-0.6983456874,-0.0041437914,1.0201442602\H,-0.0091068
 465,0.4318410244,-0.5493130556\\Version=ES64L-G09RevE.01\State=1-AG\HF
 =-79.8304195\RMSD=9.170e-09\RMSF=8.338e-05\Dipole=0.,0.,0.\Quadrupole=
 0.0183464,-0.1469023,0.1285558,0.1743299,-0.0001559,-0.0000385\PG=CI [
 X(C2H6)]\\@


      LET US REMEMBER, PLEASE, THAT THE SEARCH FOR THE CONSTITUTION
      OF THE WORLD IS ONE OF THE GREATEST AND NOBLEST PROBLEMS PRESENTED 
      BY NATURE.

                                                  -- GALILEO
 Job cpu time:       0 days  0 hours  0 minutes 31.2 seconds.
 File lengths (MBytes):  RWF=      5 Int=      0 D2E=      0 Chk=      1 Scr=      1
 Normal termination of Gaussian 09 at Thu Feb 23 18:24:49 2017.
