 Entering Gaussian System, Link 0=g09
 Input=CH3_MX_6Gd.com
 Output=CH3_MX_6Gd.log
 Initial command:
 /sw/contrib/gaussian/g09/E01/g09/l1.exe "/scr/Gau-9394.inp" -scrdir="/scr/"
 Entering Link 1 = /sw/contrib/gaussian/g09/E01/g09/l1.exe PID=      9395.
  
 Copyright (c) 1988,1990,1992,1993,1995,1998,2003,2009,2015,
            Gaussian, Inc.  All Rights Reserved.
  
 This is part of the Gaussian(R) 09 program.  It is based on
 the Gaussian(R) 03 system (copyright 2003, Gaussian, Inc.),
 the Gaussian(R) 98 system (copyright 1998, Gaussian, Inc.),
 the Gaussian(R) 94 system (copyright 1995, Gaussian, Inc.),
 the Gaussian 92(TM) system (copyright 1992, Gaussian, Inc.),
 the Gaussian 90(TM) system (copyright 1990, Gaussian, Inc.),
 the Gaussian 88(TM) system (copyright 1988, Gaussian, Inc.),
 the Gaussian 86(TM) system (copyright 1986, Carnegie Mellon
 University), and the Gaussian 82(TM) system (copyright 1983,
 Carnegie Mellon University). Gaussian is a federally registered
 trademark of Gaussian, Inc.
  
 This software contains proprietary and confidential information,
 including trade secrets, belonging to Gaussian, Inc.
  
 This software is provided under written license and may be
 used, copied, transmitted, or stored only in accord with that
 written license.
  
 The following legend is applicable only to US Government
 contracts under FAR:
  
                    RESTRICTED RIGHTS LEGEND
  
 Use, reproduction and disclosure by the US Government is
 subject to restrictions as set forth in subparagraphs (a)
 and (c) of the Commercial Computer Software - Restricted
 Rights clause in FAR 52.227-19.
  
 Gaussian, Inc.
 340 Quinnipiac St., Bldg. 40, Wallingford CT 06492
  
  
 ---------------------------------------------------------------
 Warning -- This program may not be used in any manner that
 competes with the business of Gaussian, Inc. or will provide
 assistance to any competitor of Gaussian, Inc.  The licensee
 of this program is prohibited from giving any competitor of
 Gaussian, Inc. access to this program.  By using this program,
 the user acknowledges that Gaussian, Inc. is engaged in the
 business of creating and licensing software in the field of
 computational chemistry and represents and warrants to the
 licensee that it is not a competitor of Gaussian, Inc. and that
 it will not use this program in any manner prohibited above.
 ---------------------------------------------------------------
  

 Cite this work as:
 Gaussian 09, Revision E.01,
 M. J. Frisch, G. W. Trucks, H. B. Schlegel, G. E. Scuseria, 
 M. A. Robb, J. R. Cheeseman, G. Scalmani, V. Barone, B. Mennucci, 
 G. A. Petersson, H. Nakatsuji, M. Caricato, X. Li, H. P. Hratchian, 
 A. F. Izmaylov, J. Bloino, G. Zheng, J. L. Sonnenberg, M. Hada, 
 M. Ehara, K. Toyota, R. Fukuda, J. Hasegawa, M. Ishida, T. Nakajima, 
 Y. Honda, O. Kitao, H. Nakai, T. Vreven, J. A. Montgomery, Jr., 
 J. E. Peralta, F. Ogliaro, M. Bearpark, J. J. Heyd, E. Brothers, 
 K. N. Kudin, V. N. Staroverov, T. Keith, R. Kobayashi, J. Normand, 
 K. Raghavachari, A. Rendell, J. C. Burant, S. S. Iyengar, J. Tomasi, 
 M. Cossi, N. Rega, J. M. Millam, M. Klene, J. E. Knox, J. B. Cross, 
 V. Bakken, C. Adamo, J. Jaramillo, R. Gomperts, R. E. Stratmann, 
 O. Yazyev, A. J. Austin, R. Cammi, C. Pomelli, J. W. Ochterski, 
 R. L. Martin, K. Morokuma, V. G. Zakrzewski, G. A. Voth, 
 P. Salvador, J. J. Dannenberg, S. Dapprich, A. D. Daniels, 
 O. Farkas, J. B. Foresman, J. V. Ortiz, J. Cioslowski, 
 and D. J. Fox, Gaussian, Inc., Wallingford CT, 2013.
 
 ******************************************
 Gaussian 09:  ES64L-G09RevE.01 30-Nov-2015
                23-Feb-2017 
 ******************************************
 %NProcShared=8
 Will use up to    8 processors via shared memory.
 ---------------------
 #n M062X/6-31G(d) Opt
 ---------------------
 1/14=-1,18=20,19=15,26=3,38=1/1,3;
 2/9=110,12=2,17=6,18=5,40=1/2;
 3/5=1,6=6,7=1,11=2,16=1,25=1,30=1,71=1,74=-55/1,2,3;
 4//1;
 5/5=2,38=5/2;
 6/7=2,8=2,9=2,10=2,28=1/1;
 7//1,2,3,16;
 1/14=-1,18=20,19=15,26=3/3(2);
 2/9=110/2;
 99//99;
 2/9=110/2;
 3/5=1,6=6,7=1,11=2,16=1,25=1,30=1,71=1,74=-55/1,2,3;
 4/5=5,16=3,69=1/1;
 5/5=2,38=5/2;
 7//1,2,3,16;
 1/14=-1,18=20,19=15,26=3/3(-5);
 2/9=110/2;
 6/7=2,8=2,9=2,10=2,19=2,28=1/1;
 99/9=1/99;
 ---------------
 CH3_M062X/3-21G
 ---------------
 Symbolic Z-matrix:
 Charge =  0 Multiplicity = 1
 C                    -1.76985   1.60508   0. 
 C                    -0.94833   0.30637   0. 
 H                    -2.70278   1.46556   0.5507 
 H                    -2.01181   1.90264  -1.02275 
 H                    -1.2057    2.41255   0.47205 
 H                    -1.51248  -0.5011   -0.47205 
 H                    -0.70637   0.00881   1.02275 
 H                    -0.0154    0.44589  -0.5507 
 

 GradGradGradGradGradGradGradGradGradGradGradGradGradGradGradGradGradGrad
 Berny optimization.
 Initialization pass.
                           ----------------------------
                           !    Initial Parameters    !
                           ! (Angstroms and Degrees)  !
 --------------------------                            --------------------------
 ! Name  Definition              Value          Derivative Info.                !
 --------------------------------------------------------------------------------
 ! R1    R(1,2)                  1.5367         estimate D2E/DX2                !
 ! R2    R(1,3)                  1.0923         estimate D2E/DX2                !
 ! R3    R(1,4)                  1.0923         estimate D2E/DX2                !
 ! R4    R(1,5)                  1.0923         estimate D2E/DX2                !
 ! R5    R(2,6)                  1.0923         estimate D2E/DX2                !
 ! R6    R(2,7)                  1.0923         estimate D2E/DX2                !
 ! R7    R(2,8)                  1.0923         estimate D2E/DX2                !
 ! A1    A(2,1,3)              110.4046         estimate D2E/DX2                !
 ! A2    A(2,1,4)              110.4044         estimate D2E/DX2                !
 ! A3    A(2,1,5)              110.404          estimate D2E/DX2                !
 ! A4    A(3,1,4)              108.5221         estimate D2E/DX2                !
 ! A5    A(3,1,5)              108.5221         estimate D2E/DX2                !
 ! A6    A(4,1,5)              108.5224         estimate D2E/DX2                !
 ! A7    A(1,2,6)              110.404          estimate D2E/DX2                !
 ! A8    A(1,2,7)              110.4044         estimate D2E/DX2                !
 ! A9    A(1,2,8)              110.4046         estimate D2E/DX2                !
 ! A10   A(6,2,7)              108.5224         estimate D2E/DX2                !
 ! A11   A(6,2,8)              108.5221         estimate D2E/DX2                !
 ! A12   A(7,2,8)              108.5221         estimate D2E/DX2                !
 ! D1    D(3,1,2,6)             60.0001         estimate D2E/DX2                !
 ! D2    D(3,1,2,7)            -59.9999         estimate D2E/DX2                !
 ! D3    D(3,1,2,8)            180.0            estimate D2E/DX2                !
 ! D4    D(4,1,2,6)            -59.9999         estimate D2E/DX2                !
 ! D5    D(4,1,2,7)            180.0            estimate D2E/DX2                !
 ! D6    D(4,1,2,8)             59.9999         estimate D2E/DX2                !
 ! D7    D(5,1,2,6)           -180.0            estimate D2E/DX2                !
 ! D8    D(5,1,2,7)             59.9999         estimate D2E/DX2                !
 ! D9    D(5,1,2,8)            -60.0001         estimate D2E/DX2                !
 --------------------------------------------------------------------------------
 Trust Radius=3.00D-01 FncErr=1.00D-07 GrdErr=1.00D-06
 Number of steps in this run=     38 maximum allowed number of steps=    100.
 GradGradGradGradGradGradGradGradGradGradGradGradGradGradGradGradGradGrad

                          Input orientation:                          
 ---------------------------------------------------------------------
 Center     Atomic      Atomic             Coordinates (Angstroms)
 Number     Number       Type             X           Y           Z
 ---------------------------------------------------------------------
      1          6           0       -1.769850    1.605080    0.000000
      2          6           0       -0.948330    0.306370    0.000000
      3          1           0       -2.702780    1.465560    0.550700
      4          1           0       -2.011810    1.902640   -1.022750
      5          1           0       -1.205700    2.412550    0.472050
      6          1           0       -1.512480   -0.501100   -0.472050
      7          1           0       -0.706370    0.008810    1.022750
      8          1           0       -0.015400    0.445890   -0.550700
 ---------------------------------------------------------------------
                    Distance matrix (angstroms):
                    1          2          3          4          5
     1  C    0.000000
     2  C    1.536731   0.000000
     3  H    1.092289   2.173726   0.000000
     4  H    1.092293   2.173726   1.773196   0.000000
     5  H    1.092293   2.173721   1.773196   1.773203   0.000000
     6  H    2.173721   1.092293   2.516065   2.516062   3.078116
     7  H    2.173726   1.092293   2.516069   3.078122   2.516062
     8  H    2.173726   1.092289   3.078120   2.516069   2.516065
                    6          7          8
     6  H    0.000000
     7  H    1.773203   0.000000
     8  H    1.773196   1.773196   0.000000
 This structure is nearly, but not quite of a higher symmetry.
 Consider Symm=Loose if the higher symmetry is desired.
 Stoichiometry    C2H6
 Framework group  CI[X(C2H6)]
 Deg. of freedom     9
 Full point group                 CI      NOp   2
 Largest Abelian subgroup         CI      NOp   2
 Largest concise Abelian subgroup CI      NOp   2
                         Standard orientation:                         
 ---------------------------------------------------------------------
 Center     Atomic      Atomic             Coordinates (Angstroms)
 Number     Number       Type             X           Y           Z
 ---------------------------------------------------------------------
      1          6           0       -0.410760    0.649355    0.000000
      2          6           0        0.410760   -0.649355    0.000000
      3          1           0       -1.343690    0.509835    0.550700
      4          1           0       -0.652720    0.946915   -1.022750
      5          1           0        0.153390    1.456825    0.472050
      6          1           0       -0.153390   -1.456825   -0.472050
      7          1           0        0.652720   -0.946915    1.022750
      8          1           0        1.343690   -0.509835   -0.550700
 ---------------------------------------------------------------------
 Rotational constants (GHZ):     79.7420612     19.9566490     19.9566228
 Standard basis: 6-31G(d) (6D, 7F)
 There are    21 symmetry adapted cartesian basis functions of AG  symmetry.
 There are    21 symmetry adapted cartesian basis functions of AU  symmetry.
 There are    21 symmetry adapted basis functions of AG  symmetry.
 There are    21 symmetry adapted basis functions of AU  symmetry.
    42 basis functions,    80 primitive gaussians,    42 cartesian basis functions
     9 alpha electrons        9 beta electrons
       nuclear repulsion energy        42.1696170358 Hartrees.
 NAtoms=    8 NActive=    8 NUniq=    4 SFac= 4.00D+00 NAtFMM=   60 NAOKFM=F Big=F
 Integral buffers will be    131072 words long.
 Raffenetti 2 integral format.
 Two-electron integral symmetry is turned on.
 One-electron integrals computed using PRISM.
 NBasis=    42 RedAO= T EigKep=  5.92D-03  NBF=    21    21
 NBsUse=    42 1.00D-06 EigRej= -1.00D+00 NBFU=    21    21
 ExpMin= 1.61D-01 ExpMax= 3.05D+03 ExpMxC= 4.57D+02 IAcc=1 IRadAn=         1 AccDes= 0.00D+00
 Harris functional with IExCor= 1009 and IRadAn=       1 diagonalized for initial guess.
 HarFok:  IExCor= 1009 AccDes= 0.00D+00 IRadAn=         1 IDoV= 1 UseB2=F ITyADJ=14
 ICtDFT=  3500011 ScaDFX=  1.000000  1.000000  1.000000  1.000000
 FoFCou: FMM=F IPFlag=           0 FMFlag=      100000 FMFlg1=           0
         NFxFlg=           0 DoJE=T BraDBF=F KetDBF=T FulRan=T
         wScrn=  0.000000 ICntrl=     500 IOpCl=  0 I1Cent=   200000004 NGrid=           0
         NMat0=    1 NMatS0=      1 NMatT0=    0 NMatD0=    1 NMtDS0=    0 NMtDT0=    0
 Petite list used in FoFCou.
 Initial guess orbital symmetries:
       Occupied  (AG) (AU) (AG) (AU) (AU) (AU) (AG) (AG) (AG)
       Virtual   (AG) (AU) (AU) (AU) (AG) (AG) (AU) (AG) (AU) (AU)
                 (AG) (AG) (AU) (AU) (AU) (AG) (AG) (AG) (AU) (AG)
                 (AU) (AU) (AU) (AG) (AG) (AG) (AU) (AU) (AG) (AG)
                 (AU) (AG) (AU)
 The electronic state of the initial guess is 1-AG.
 Keep R1 ints in memory in symmetry-blocked form, NReq=1296466.
 Requested convergence on RMS density matrix=1.00D-08 within 128 cycles.
 Requested convergence on MAX density matrix=1.00D-06.
 Requested convergence on             energy=1.00D-06.
 No special actions if energy rises.
 Integral accuracy reduced to 1.0D-05 until final iterations.
 Initial convergence to 1.0D-05 achieved.  Increase integral accuracy.
 SCF Done:  E(RM062X) =  -79.7716369568     A.U. after   12 cycles
            NFock= 12  Conv=0.16D-08     -V/T= 2.0094

 **********************************************************************

            Population analysis using the SCF density.

 **********************************************************************

 Orbital symmetries:
       Occupied  (AG) (AU) (AG) (AU) (AU) (AU) (AG) (AG) (AG)
       Virtual   (AG) (AU) (AU) (AU) (AG) (AG) (AU) (AG) (AU) (AU)
                 (AG) (AG) (AU) (AU) (AU) (AG) (AG) (AG) (AU) (AG)
                 (AU) (AU) (AU) (AG) (AG) (AG) (AU) (AU) (AG) (AG)
                 (AU) (AG) (AU)
 The electronic state is 1-AG.
 Alpha  occ. eigenvalues --  -10.52919 -10.52885  -0.84384  -0.69588  -0.50020
 Alpha  occ. eigenvalues --   -0.50018  -0.41752  -0.40194  -0.40191
 Alpha virt. eigenvalues --    0.14973   0.20803   0.21484   0.21485   0.23541
 Alpha virt. eigenvalues --    0.23541   0.28290   0.56218   0.59030   0.59033
 Alpha virt. eigenvalues --    0.68198   0.68198   0.72933   0.95418   0.95422
 Alpha virt. eigenvalues --    0.97908   0.99237   0.99244   1.05761   1.10763
 Alpha virt. eigenvalues --    1.47304   1.57860   1.57866   1.97858   2.04715
 Alpha virt. eigenvalues --    2.04718   2.33652   2.33661   2.36720   2.36729
 Alpha virt. eigenvalues --    2.61791   4.18225   4.40062
          Condensed to atoms (all electrons):
               1          2          3          4          5          6
     1  C    5.067185   0.354612   0.388204   0.388196   0.388200  -0.035735
     2  C    0.354612   5.067185  -0.035745  -0.035756  -0.035735   0.388200
     3  H    0.388204  -0.035745   0.548488  -0.028975  -0.028980  -0.003534
     4  H    0.388196  -0.035756  -0.028975   0.548463  -0.028963  -0.003530
     5  H    0.388200  -0.035735  -0.028980  -0.028963   0.548438   0.004369
     6  H   -0.035735   0.388200  -0.003534  -0.003530   0.004369   0.548438
     7  H   -0.035756   0.388196  -0.003529   0.004369  -0.003530  -0.028963
     8  H   -0.035745   0.388204   0.004370  -0.003529  -0.003534  -0.028980
               7          8
     1  C   -0.035756  -0.035745
     2  C    0.388196   0.388204
     3  H   -0.003529   0.004370
     4  H    0.004369  -0.003529
     5  H   -0.003530  -0.003534
     6  H   -0.028963  -0.028980
     7  H    0.548463  -0.028975
     8  H   -0.028975   0.548488
 Mulliken charges:
               1
     1  C   -0.479161
     2  C   -0.479161
     3  H    0.159701
     4  H    0.159726
     5  H    0.159734
     6  H    0.159734
     7  H    0.159726
     8  H    0.159701
 Sum of Mulliken charges =   0.00000
 Mulliken charges with hydrogens summed into heavy atoms:
               1
     1  C    0.000000
     2  C    0.000000
 Electronic spatial extent (au):  <R**2>=            109.3637
 Charge=              0.0000 electrons
 Dipole moment (field-independent basis, Debye):
    X=              0.0000    Y=              0.0000    Z=              0.0000  Tot=              0.0000
 Quadrupole moment (field-independent basis, Debye-Ang):
   XX=            -14.9009   YY=            -15.2105   ZZ=            -14.6934
   XY=              0.3274   XZ=              0.0002   YZ=              0.0001
 Traceless Quadrupole moment (field-independent basis, Debye-Ang):
   XX=              0.0340   YY=             -0.2755   ZZ=              0.2416
   XY=              0.3274   XZ=              0.0002   YZ=              0.0001
 Octapole moment (field-independent basis, Debye-Ang**2):
  XXX=              0.0000  YYY=              0.0000  ZZZ=              0.0000  XYY=              0.0000
  XXY=              0.0000  XXZ=              0.0000  XZZ=              0.0000  YZZ=              0.0000
  YYZ=              0.0000  XYZ=              0.0000
 Hexadecapole moment (field-independent basis, Debye-Ang**3):
 XXXX=            -45.6786 YYYY=            -72.9872 ZZZZ=            -28.5049 XXXY=             13.8452
 XXXZ=             -1.5192 YYYX=             15.3707 YYYZ=              0.9621 ZZZX=              0.7097
 ZZZY=             -1.1211 XXYY=            -20.4559 XXZZ=            -12.0657 YYZZ=            -16.4704
 XXYZ=              0.1599 YYXZ=              0.8107 ZZXY=              4.2307
 N-N= 4.216961703580D+01 E-N=-2.681203491921D+02  KE= 7.902723268195D+01
 Symmetry AG   KE= 4.101884616624D+01
 Symmetry AU   KE= 3.800838651571D+01
 Calling FoFJK, ICntrl=      2127 FMM=F ISym2X=1 I1Cent= 0 IOpClX= 0 NMat=1 NMatS=1 NMatT=0.
 ***** Axes restored to original set *****
 -------------------------------------------------------------------
 Center     Atomic                   Forces (Hartrees/Bohr)
 Number     Number              X              Y              Z
 -------------------------------------------------------------------
      1        6           0.004674863   -0.007284582    0.000018260
      2        6          -0.004674863    0.007284582   -0.000018260
      3        1          -0.001084772    0.001595617   -0.000002430
      4        1          -0.001030501    0.001587421   -0.000055538
      5        1          -0.001039107    0.001642370    0.000038566
      6        1           0.001039107   -0.001642370   -0.000038566
      7        1           0.001030501   -0.001587421    0.000055538
      8        1           0.001084772   -0.001595617    0.000002430
 -------------------------------------------------------------------
 Cartesian Forces:  Max     0.007284582 RMS     0.002677158

 GradGradGradGradGradGradGradGradGradGradGradGradGradGradGradGradGradGrad
 Berny optimization.
 FormGI is forming the generalized inverse of G from B-inverse, IUseBI=4.
 Internal  Forces:  Max     0.002891111 RMS     0.001347036
 Search for a local minimum.
 Step number   1 out of a maximum of   38
 All quantities printed in internal units (Hartrees-Bohrs-Radians)
 Mixed Optimization -- RFO/linear search
 Second derivative matrix not updated -- first step.
 ITU=  0
     Eigenvalues ---    0.00280   0.05575   0.05575   0.05575   0.05575
     Eigenvalues ---    0.16000   0.16000   0.16000   0.16000   0.16000
     Eigenvalues ---    0.16000   0.28810   0.34549   0.34549   0.34549
     Eigenvalues ---    0.34549   0.34549   0.34549
 RFO step:  Lambda=-2.83720096D-04 EMin= 2.80064107D-03
 Linear search not attempted -- first point.
 Iteration  1 RMS(Cart)=  0.00851194 RMS(Int)=  0.00006749
 Iteration  2 RMS(Cart)=  0.00005840 RMS(Int)=  0.00003971
 Iteration  3 RMS(Cart)=  0.00000000 RMS(Int)=  0.00003971
 ClnCor:  largest displacement from symmetrization is 8.01D-09 for atom     6.
 Variable       Old X    -DE/DX   Delta X   Delta X   Delta X     New X
                                 (Linear)    (Quad)   (Total)
    R1        2.90400  -0.00289   0.00000  -0.01003  -0.01003   2.89398
    R2        2.06413   0.00072   0.00000   0.00208   0.00208   2.06620
    R3        2.06413   0.00071   0.00000   0.00204   0.00204   2.06618
    R4        2.06413   0.00070   0.00000   0.00204   0.00204   2.06617
    R5        2.06413   0.00070   0.00000   0.00204   0.00204   2.06617
    R6        2.06413   0.00071   0.00000   0.00204   0.00204   2.06618
    R7        2.06413   0.00072   0.00000   0.00208   0.00208   2.06620
    A1        1.92692   0.00179   0.00000   0.01114   0.01108   1.93800
    A2        1.92692   0.00175   0.00000   0.01090   0.01084   1.93776
    A3        1.92691   0.00180   0.00000   0.01131   0.01125   1.93816
    A4        1.89407  -0.00184   0.00000  -0.01163  -0.01168   1.88238
    A5        1.89407  -0.00186   0.00000  -0.01158  -0.01164   1.88243
    A6        1.89407  -0.00182   0.00000  -0.01128  -0.01134   1.88273
    A7        1.92691   0.00180   0.00000   0.01131   0.01125   1.93816
    A8        1.92692   0.00175   0.00000   0.01090   0.01084   1.93776
    A9        1.92692   0.00179   0.00000   0.01114   0.01108   1.93800
   A10        1.89407  -0.00182   0.00000  -0.01128  -0.01134   1.88273
   A11        1.89407  -0.00186   0.00000  -0.01158  -0.01164   1.88243
   A12        1.89407  -0.00184   0.00000  -0.01163  -0.01168   1.88238
    D1        1.04720   0.00000   0.00000  -0.00004  -0.00004   1.04716
    D2       -1.04720  -0.00002   0.00000  -0.00029  -0.00029  -1.04749
    D3        3.14159   0.00000   0.00000   0.00000   0.00000   3.14159
    D4       -1.04720   0.00001   0.00000   0.00025   0.00025  -1.04694
    D5        3.14159   0.00000   0.00000   0.00000   0.00000   3.14159
    D6        1.04720   0.00002   0.00000   0.00029   0.00029   1.04749
    D7        3.14159   0.00000   0.00000   0.00000   0.00000   3.14159
    D8        1.04720  -0.00001   0.00000  -0.00025  -0.00025   1.04694
    D9       -1.04720   0.00000   0.00000   0.00004   0.00004  -1.04716
         Item               Value     Threshold  Converged?
 Maximum Force            0.002891     0.000450     NO 
 RMS     Force            0.001347     0.000300     NO 
 Maximum Displacement     0.017346     0.001800     NO 
 RMS     Displacement     0.008507     0.001200     NO 
 Predicted change in Energy=-1.420928D-04
 GradGradGradGradGradGradGradGradGradGradGradGradGradGradGradGradGradGrad

                          Input orientation:                          
 ---------------------------------------------------------------------
 Center     Atomic      Atomic             Coordinates (Angstroms)
 Number     Number       Type             X           Y           Z
 ---------------------------------------------------------------------
      1          6           0       -1.768371    1.602877    0.000061
      2          6           0       -0.949809    0.308573   -0.000061
      3          1           0       -2.705281    1.474739    0.548946
      4          1           0       -2.016512    1.910194   -1.019473
      5          1           0       -1.213010    2.418700    0.470666
      6          1           0       -1.505170   -0.507250   -0.470666
      7          1           0       -0.701668    0.001256    1.019473
      8          1           0       -0.012899    0.436711   -0.548946
 ---------------------------------------------------------------------
                    Distance matrix (angstroms):
                    1          2          3          4          5
     1  C    0.000000
     2  C    1.531426   0.000000
     3  H    1.093387   2.177850   0.000000
     4  H    1.093374   2.177670   1.767473   0.000000
     5  H    1.093371   2.177956   1.767502   1.767684   0.000000
     6  H    2.177956   1.093371   2.531433   2.531145   3.087497
     7  H    2.177670   1.093374   2.531208   3.087096   2.531145
     8  H    2.177850   1.093387   3.087360   2.531208   2.531433
                    6          7          8
     6  H    0.000000
     7  H    1.767684   0.000000
     8  H    1.767502   1.767473   0.000000
 Stoichiometry    C2H6
 Framework group  CI[X(C2H6)]
 Deg. of freedom     9
 Full point group                 CI      NOp   2
 Largest Abelian subgroup         CI      NOp   2
 Largest concise Abelian subgroup CI      NOp   2
                         Standard orientation:                         
 ---------------------------------------------------------------------
 Center     Atomic      Atomic             Coordinates (Angstroms)
 Number     Number       Type             X           Y           Z
 ---------------------------------------------------------------------
      1          6           0       -0.409281    0.647152    0.000061
      2          6           0        0.409281   -0.647152   -0.000061
      3          1           0       -1.346191    0.519014    0.548946
      4          1           0       -0.657422    0.954469   -1.019473
      5          1           0        0.146080    1.462975    0.470666
      6          1           0       -0.146080   -1.462975   -0.470666
      7          1           0        0.657422   -0.954469    1.019473
      8          1           0        1.346191   -0.519014   -0.548946
 ---------------------------------------------------------------------
 Rotational constants (GHZ):     80.2522765     19.9505293     19.9497885
 Standard basis: 6-31G(d) (6D, 7F)
 There are    21 symmetry adapted cartesian basis functions of AG  symmetry.
 There are    21 symmetry adapted cartesian basis functions of AU  symmetry.
 There are    21 symmetry adapted basis functions of AG  symmetry.
 There are    21 symmetry adapted basis functions of AU  symmetry.
    42 basis functions,    80 primitive gaussians,    42 cartesian basis functions
     9 alpha electrons        9 beta electrons
       nuclear repulsion energy        42.1753459482 Hartrees.
 NAtoms=    8 NActive=    8 NUniq=    4 SFac= 4.00D+00 NAtFMM=   60 NAOKFM=F Big=F
 Integral buffers will be    131072 words long.
 Raffenetti 2 integral format.
 Two-electron integral symmetry is turned on.
 One-electron integrals computed using PRISM.
 NBasis=    42 RedAO= T EigKep=  5.95D-03  NBF=    21    21
 NBsUse=    42 1.00D-06 EigRej= -1.00D+00 NBFU=    21    21
 Initial guess from the checkpoint file:  "/scr/Gau-9395.chk"
 B after Tr=     0.000000    0.000000    0.000000
         Rot=    1.000000   -0.000011   -0.000007    0.000015 Ang=   0.00 deg.
 Initial guess orbital symmetries:
       Occupied  (AG) (AU) (AG) (AU) (AU) (AU) (AG) (AG) (AG)
       Virtual   (AG) (AG) (AG) (AG) (AG) (AG) (AG) (AG) (AG) (AG)
                 (AG) (AG) (AG) (AG) (AG) (AG) (AU) (AU) (AU) (AU)
                 (AU) (AU) (AU) (AU) (AU) (AU) (AU) (AU) (AU) (AU)
                 (AU) (AU) (AU)
 Keep R1 ints in memory in symmetry-blocked form, NReq=1296466.
 Requested convergence on RMS density matrix=1.00D-08 within 128 cycles.
 Requested convergence on MAX density matrix=1.00D-06.
 Requested convergence on             energy=1.00D-06.
 No special actions if energy rises.
 SCF Done:  E(RM062X) =  -79.7718148145     A.U. after    7 cycles
            NFock=  7  Conv=0.43D-08     -V/T= 2.0095
 Calling FoFJK, ICntrl=      2127 FMM=F ISym2X=1 I1Cent= 0 IOpClX= 0 NMat=1 NMatS=1 NMatT=0.
 ***** Axes restored to original set *****
 -------------------------------------------------------------------
 Center     Atomic                   Forces (Hartrees/Bohr)
 Number     Number              X              Y              Z
 -------------------------------------------------------------------
      1        6           0.001834039   -0.002887599   -0.000024591
      2        6          -0.001834039    0.002887599    0.000024591
      3        1          -0.000308122    0.000295502    0.000028767
      4        1          -0.000218530    0.000341261   -0.000101295
      5        1          -0.000173057    0.000375566    0.000052419
      6        1           0.000173057   -0.000375566   -0.000052419
      7        1           0.000218530   -0.000341261    0.000101295
      8        1           0.000308122   -0.000295502   -0.000028767
 -------------------------------------------------------------------
 Cartesian Forces:  Max     0.002887599 RMS     0.001009696

 GradGradGradGradGradGradGradGradGradGradGradGradGradGradGradGradGradGrad
 Berny optimization.
 Using GEDIIS/GDIIS optimizer.
 FormGI is forming the generalized inverse of G from B-inverse, IUseBI=4.
 Internal  Forces:  Max     0.002191218 RMS     0.000485785
 Search for a local minimum.
 Step number   2 out of a maximum of   38
 All quantities printed in internal units (Hartrees-Bohrs-Radians)
 Mixed Optimization -- En-DIIS/RFO-DIIS
 Update second derivatives using D2CorX and points    1    2
 DE= -1.78D-04 DEPred=-1.42D-04 R= 1.25D+00
 TightC=F SS=  1.41D+00  RLast= 4.08D-02 DXNew= 5.0454D-01 1.2226D-01
 Trust test= 1.25D+00 RLast= 4.08D-02 DXMaxT set to 3.00D-01
 ITU=  1  0
 Use linear search instead of GDIIS.
     Eigenvalues ---    0.00280   0.05457   0.05457   0.05460   0.05460
     Eigenvalues ---    0.12517   0.16000   0.16000   0.16000   0.16000
     Eigenvalues ---    0.16002   0.27607   0.34365   0.34549   0.34549
     Eigenvalues ---    0.34549   0.34549   0.34550
 RFO step:  Lambda=-1.50349945D-05 EMin= 2.80064107D-03
 Quartic linear search produced a step of  0.34625.
 Iteration  1 RMS(Cart)=  0.00180154 RMS(Int)=  0.00001817
 Iteration  2 RMS(Cart)=  0.00000708 RMS(Int)=  0.00001725
 Iteration  3 RMS(Cart)=  0.00000000 RMS(Int)=  0.00001725
 ClnCor:  largest displacement from symmetrization is 2.74D-09 for atom     8.
 Variable       Old X    -DE/DX   Delta X   Delta X   Delta X     New X
                                 (Linear)    (Quad)   (Total)
    R1        2.89398  -0.00219  -0.00347  -0.00731  -0.01078   2.88320
    R2        2.06620   0.00024   0.00072   0.00034   0.00106   2.06726
    R3        2.06618   0.00023   0.00071   0.00031   0.00102   2.06720
    R4        2.06617   0.00022   0.00071   0.00027   0.00098   2.06715
    R5        2.06617   0.00022   0.00071   0.00027   0.00098   2.06715
    R6        2.06618   0.00023   0.00071   0.00031   0.00102   2.06720
    R7        2.06620   0.00024   0.00072   0.00034   0.00106   2.06726
    A1        1.93800   0.00035   0.00383  -0.00031   0.00349   1.94149
    A2        1.93776   0.00035   0.00375  -0.00018   0.00355   1.94131
    A3        1.93816   0.00033   0.00390  -0.00050   0.00337   1.94153
    A4        1.88238  -0.00037  -0.00405   0.00034  -0.00373   1.87865
    A5        1.88243  -0.00036  -0.00403   0.00033  -0.00373   1.87870
    A6        1.88273  -0.00035  -0.00393   0.00038  -0.00357   1.87916
    A7        1.93816   0.00033   0.00390  -0.00050   0.00337   1.94153
    A8        1.93776   0.00035   0.00375  -0.00018   0.00355   1.94131
    A9        1.93800   0.00035   0.00383  -0.00031   0.00349   1.94149
   A10        1.88273  -0.00035  -0.00393   0.00038  -0.00357   1.87916
   A11        1.88243  -0.00036  -0.00403   0.00033  -0.00373   1.87870
   A12        1.88238  -0.00037  -0.00405   0.00034  -0.00373   1.87865
    D1        1.04716   0.00000  -0.00001   0.00013   0.00012   1.04728
    D2       -1.04749   0.00000  -0.00010   0.00010   0.00000  -1.04749
    D3        3.14159   0.00000   0.00000   0.00000   0.00000   3.14159
    D4       -1.04694   0.00000   0.00009   0.00003   0.00012  -1.04682
    D5        3.14159   0.00000   0.00000   0.00000   0.00000   3.14159
    D6        1.04749   0.00000   0.00010  -0.00010   0.00000   1.04749
    D7        3.14159   0.00000   0.00000   0.00000   0.00000   3.14159
    D8        1.04694   0.00000  -0.00009  -0.00003  -0.00012   1.04682
    D9       -1.04716   0.00000   0.00001  -0.00013  -0.00012  -1.04728
         Item               Value     Threshold  Converged?
 Maximum Force            0.002191     0.000450     NO 
 RMS     Force            0.000486     0.000300     NO 
 Maximum Displacement     0.004565     0.001800     NO 
 RMS     Displacement     0.001802     0.001200     NO 
 Predicted change in Energy=-1.994077D-05
 GradGradGradGradGradGradGradGradGradGradGradGradGradGradGradGradGradGrad

                          Input orientation:                          
 ---------------------------------------------------------------------
 Center     Atomic      Atomic             Coordinates (Angstroms)
 Number     Number       Type             X           Y           Z
 ---------------------------------------------------------------------
      1          6           0       -1.766854    1.600461    0.000025
      2          6           0       -0.951326    0.310989   -0.000025
      3          1           0       -2.705160    1.475912    0.548464
      4          1           0       -2.017014    1.910958   -1.018631
      5          1           0       -1.214119    2.418950    0.470292
      6          1           0       -1.504061   -0.507500   -0.470292
      7          1           0       -0.701166    0.000492    1.018631
      8          1           0       -0.013020    0.435538   -0.548464
 ---------------------------------------------------------------------
                    Distance matrix (angstroms):
                    1          2          3          4          5
     1  C    0.000000
     2  C    1.525721   0.000000
     3  H    1.093946   2.175735   0.000000
     4  H    1.093915   2.175581   1.765955   0.000000
     5  H    1.093888   2.175721   1.765966   1.766236   0.000000
     6  H    2.175721   1.093888   2.532672   2.532338   3.087536
     7  H    2.175581   1.093915   2.532571   3.087358   2.532338
     8  H    2.175735   1.093946   3.087596   2.532571   2.532672
                    6          7          8
     6  H    0.000000
     7  H    1.766236   0.000000
     8  H    1.765966   1.765955   0.000000
 Stoichiometry    C2H6
 Framework group  CI[X(C2H6)]
 Deg. of freedom     9
 Full point group                 CI      NOp   2
 Largest Abelian subgroup         CI      NOp   2
 Largest concise Abelian subgroup CI      NOp   2
                         Standard orientation:                         
 ---------------------------------------------------------------------
 Center     Atomic      Atomic             Coordinates (Angstroms)
 Number     Number       Type             X           Y           Z
 ---------------------------------------------------------------------
      1          6           0       -0.407764    0.644736    0.000025
      2          6           0        0.407764   -0.644736   -0.000025
      3          1           0       -1.346070    0.520187    0.548464
      4          1           0       -0.657924    0.955233   -1.018631
      5          1           0        0.144971    1.463225    0.470292
      6          1           0       -0.144971   -1.463225   -0.470292
      7          1           0        0.657924   -0.955233    1.018631
      8          1           0        1.346070   -0.520187   -0.548464
 ---------------------------------------------------------------------
 Rotational constants (GHZ):     80.3886711     20.0278634     20.0268255
 Standard basis: 6-31G(d) (6D, 7F)
 There are    21 symmetry adapted cartesian basis functions of AG  symmetry.
 There are    21 symmetry adapted cartesian basis functions of AU  symmetry.
 There are    21 symmetry adapted basis functions of AG  symmetry.
 There are    21 symmetry adapted basis functions of AU  symmetry.
    42 basis functions,    80 primitive gaussians,    42 cartesian basis functions
     9 alpha electrons        9 beta electrons
       nuclear repulsion energy        42.2227792203 Hartrees.
 NAtoms=    8 NActive=    8 NUniq=    4 SFac= 4.00D+00 NAtFMM=   60 NAOKFM=F Big=F
 Integral buffers will be    131072 words long.
 Raffenetti 2 integral format.
 Two-electron integral symmetry is turned on.
 One-electron integrals computed using PRISM.
 NBasis=    42 RedAO= T EigKep=  5.91D-03  NBF=    21    21
 NBsUse=    42 1.00D-06 EigRej= -1.00D+00 NBFU=    21    21
 Initial guess from the checkpoint file:  "/scr/Gau-9395.chk"
 B after Tr=     0.000000    0.000000    0.000000
         Rot=    1.000000    0.000006    0.000004   -0.000002 Ang=   0.00 deg.
 Initial guess orbital symmetries:
       Occupied  (AG) (AU) (AG) (AU) (AU) (AU) (AG) (AG) (AG)
       Virtual   (AG) (AG) (AG) (AG) (AG) (AG) (AG) (AG) (AG) (AG)
                 (AG) (AG) (AG) (AG) (AG) (AG) (AU) (AU) (AU) (AU)
                 (AU) (AU) (AU) (AU) (AU) (AU) (AU) (AU) (AU) (AU)
                 (AU) (AU) (AU)
 Keep R1 ints in memory in symmetry-blocked form, NReq=1296466.
 Requested convergence on RMS density matrix=1.00D-08 within 128 cycles.
 Requested convergence on MAX density matrix=1.00D-06.
 Requested convergence on             energy=1.00D-06.
 No special actions if energy rises.
 SCF Done:  E(RM062X) =  -79.7718333942     A.U. after    7 cycles
            NFock=  7  Conv=0.25D-08     -V/T= 2.0094
 Calling FoFJK, ICntrl=      2127 FMM=F ISym2X=1 I1Cent= 0 IOpClX= 0 NMat=1 NMatS=1 NMatT=0.
 ***** Axes restored to original set *****
 -------------------------------------------------------------------
 Center     Atomic                   Forces (Hartrees/Bohr)
 Number     Number              X              Y              Z
 -------------------------------------------------------------------
      1        6          -0.000169262    0.000265937   -0.000006094
      2        6           0.000169262   -0.000265937    0.000006094
      3        1          -0.000013236    0.000007500   -0.000031001
      4        1           0.000007524    0.000010714    0.000005826
      5        1          -0.000036941    0.000010177    0.000001295
      6        1           0.000036941   -0.000010177   -0.000001295
      7        1          -0.000007524   -0.000010714   -0.000005826
      8        1           0.000013236   -0.000007500    0.000031001
 -------------------------------------------------------------------
 Cartesian Forces:  Max     0.000265937 RMS     0.000092321

 GradGradGradGradGradGradGradGradGradGradGradGradGradGradGradGradGradGrad
 Berny optimization.
 Using GEDIIS/GDIIS optimizer.
 FormGI is forming the generalized inverse of G from B-inverse, IUseBI=4.
 Internal  Forces:  Max     0.000362027 RMS     0.000069670
 Search for a local minimum.
 Step number   3 out of a maximum of   38
 All quantities printed in internal units (Hartrees-Bohrs-Radians)
 Mixed Optimization -- En-DIIS/RFO-DIIS
 Swapping is turned off.
 Update second derivatives using D2CorX and points    1    2    3
 DE= -1.86D-05 DEPred=-1.99D-05 R= 9.32D-01
 TightC=F SS=  1.41D+00  RLast= 1.66D-02 DXNew= 5.0454D-01 4.9834D-02
 Trust test= 9.32D-01 RLast= 1.66D-02 DXMaxT set to 3.00D-01
 ITU=  1  1  0
     Eigenvalues ---    0.00280   0.05421   0.05421   0.05423   0.05423
     Eigenvalues ---    0.12085   0.16000   0.16000   0.16000   0.16000
     Eigenvalues ---    0.16002   0.29912   0.34310   0.34549   0.34549
     Eigenvalues ---    0.34549   0.34549   0.34550
 En-DIIS/RFO-DIIS IScMMF=        0 using points:     3    2
 RFO step:  Lambda=-2.49146471D-07.
 DidBck=F Rises=F RFO-DIIS coefs:    0.92792    0.07208
 Iteration  1 RMS(Cart)=  0.00034798 RMS(Int)=  0.00000027
 Iteration  2 RMS(Cart)=  0.00000000 RMS(Int)=  0.00000027
 ClnCor:  largest displacement from symmetrization is 9.60D-09 for atom     6.
 Variable       Old X    -DE/DX   Delta X   Delta X   Delta X     New X
                                 (Linear)    (Quad)   (Total)
    R1        2.88320   0.00036   0.00078   0.00047   0.00124   2.88444
    R2        2.06726  -0.00001  -0.00008   0.00005  -0.00003   2.06723
    R3        2.06720  -0.00001  -0.00007   0.00003  -0.00004   2.06716
    R4        2.06715   0.00000  -0.00007   0.00004  -0.00003   2.06712
    R5        2.06715   0.00000  -0.00007   0.00004  -0.00003   2.06712
    R6        2.06720  -0.00001  -0.00007   0.00003  -0.00004   2.06716
    R7        2.06726  -0.00001  -0.00008   0.00005  -0.00003   2.06723
    A1        1.94149   0.00002  -0.00025   0.00026   0.00001   1.94150
    A2        1.94131   0.00002  -0.00026   0.00027   0.00001   1.94132
    A3        1.94153   0.00002  -0.00024   0.00030   0.00006   1.94159
    A4        1.87865  -0.00002   0.00027  -0.00029  -0.00002   1.87863
    A5        1.87870  -0.00002   0.00027  -0.00029  -0.00002   1.87868
    A6        1.87916  -0.00002   0.00026  -0.00029  -0.00003   1.87913
    A7        1.94153   0.00002  -0.00024   0.00030   0.00006   1.94159
    A8        1.94131   0.00002  -0.00026   0.00027   0.00001   1.94132
    A9        1.94149   0.00002  -0.00025   0.00026   0.00001   1.94150
   A10        1.87916  -0.00002   0.00026  -0.00029  -0.00003   1.87913
   A11        1.87870  -0.00002   0.00027  -0.00029  -0.00002   1.87868
   A12        1.87865  -0.00002   0.00027  -0.00029  -0.00002   1.87863
    D1        1.04728   0.00000  -0.00001  -0.00001  -0.00002   1.04726
    D2       -1.04749   0.00000   0.00000  -0.00002  -0.00002  -1.04751
    D3        3.14159   0.00000   0.00000   0.00000   0.00000   3.14159
    D4       -1.04682   0.00000  -0.00001   0.00001   0.00000  -1.04682
    D5        3.14159   0.00000   0.00000   0.00000   0.00000   3.14159
    D6        1.04749   0.00000   0.00000   0.00002   0.00002   1.04751
    D7        3.14159   0.00000   0.00000   0.00000   0.00000   3.14159
    D8        1.04682   0.00000   0.00001  -0.00001   0.00000   1.04682
    D9       -1.04728   0.00000   0.00001   0.00001   0.00002  -1.04726
         Item               Value     Threshold  Converged?
 Maximum Force            0.000362     0.000450     YES
 RMS     Force            0.000070     0.000300     YES
 Maximum Displacement     0.000570     0.001800     YES
 RMS     Displacement     0.000348     0.001200     YES
 Predicted change in Energy=-2.288321D-07
 Optimization completed.
    -- Stationary point found.
                           ----------------------------
                           !   Optimized Parameters   !
                           ! (Angstroms and Degrees)  !
 --------------------------                            --------------------------
 ! Name  Definition              Value          Derivative Info.                !
 --------------------------------------------------------------------------------
 ! R1    R(1,2)                  1.5257         -DE/DX =    0.0004              !
 ! R2    R(1,3)                  1.0939         -DE/DX =    0.0                 !
 ! R3    R(1,4)                  1.0939         -DE/DX =    0.0                 !
 ! R4    R(1,5)                  1.0939         -DE/DX =    0.0                 !
 ! R5    R(2,6)                  1.0939         -DE/DX =    0.0                 !
 ! R6    R(2,7)                  1.0939         -DE/DX =    0.0                 !
 ! R7    R(2,8)                  1.0939         -DE/DX =    0.0                 !
 ! A1    A(2,1,3)              111.2393         -DE/DX =    0.0                 !
 ! A2    A(2,1,4)              111.2289         -DE/DX =    0.0                 !
 ! A3    A(2,1,5)              111.2417         -DE/DX =    0.0                 !
 ! A4    A(3,1,4)              107.6389         -DE/DX =    0.0                 !
 ! A5    A(3,1,5)              107.6418         -DE/DX =    0.0                 !
 ! A6    A(4,1,5)              107.668          -DE/DX =    0.0                 !
 ! A7    A(1,2,6)              111.2417         -DE/DX =    0.0                 !
 ! A8    A(1,2,7)              111.2289         -DE/DX =    0.0                 !
 ! A9    A(1,2,8)              111.2393         -DE/DX =    0.0                 !
 ! A10   A(6,2,7)              107.668          -DE/DX =    0.0                 !
 ! A11   A(6,2,8)              107.6418         -DE/DX =    0.0                 !
 ! A12   A(7,2,8)              107.6389         -DE/DX =    0.0                 !
 ! D1    D(3,1,2,6)             60.0046         -DE/DX =    0.0                 !
 ! D2    D(3,1,2,7)            -60.0169         -DE/DX =    0.0                 !
 ! D3    D(3,1,2,8)            180.0            -DE/DX =    0.0                 !
 ! D4    D(4,1,2,6)            -59.9785         -DE/DX =    0.0                 !
 ! D5    D(4,1,2,7)            180.0            -DE/DX =    0.0                 !
 ! D6    D(4,1,2,8)             60.0169         -DE/DX =    0.0                 !
 ! D7    D(5,1,2,6)            180.0            -DE/DX =    0.0                 !
 ! D8    D(5,1,2,7)             59.9785         -DE/DX =    0.0                 !
 ! D9    D(5,1,2,8)            -60.0046         -DE/DX =    0.0                 !
 --------------------------------------------------------------------------------
 GradGradGradGradGradGradGradGradGradGradGradGradGradGradGradGradGradGrad

                          Input orientation:                          
 ---------------------------------------------------------------------
 Center     Atomic      Atomic             Coordinates (Angstroms)
 Number     Number       Type             X           Y           Z
 ---------------------------------------------------------------------
      1          6           0       -1.766854    1.600461    0.000025
      2          6           0       -0.951326    0.310989   -0.000025
      3          1           0       -2.705160    1.475912    0.548464
      4          1           0       -2.017014    1.910958   -1.018631
      5          1           0       -1.214119    2.418950    0.470292
      6          1           0       -1.504061   -0.507500   -0.470292
      7          1           0       -0.701166    0.000492    1.018631
      8          1           0       -0.013020    0.435538   -0.548464
 ---------------------------------------------------------------------
                    Distance matrix (angstroms):
                    1          2          3          4          5
     1  C    0.000000
     2  C    1.525721   0.000000
     3  H    1.093946   2.175735   0.000000
     4  H    1.093915   2.175581   1.765955   0.000000
     5  H    1.093888   2.175721   1.765966   1.766236   0.000000
     6  H    2.175721   1.093888   2.532672   2.532338   3.087536
     7  H    2.175581   1.093915   2.532571   3.087358   2.532338
     8  H    2.175735   1.093946   3.087596   2.532571   2.532672
                    6          7          8
     6  H    0.000000
     7  H    1.766236   0.000000
     8  H    1.765966   1.765955   0.000000
 Stoichiometry    C2H6
 Framework group  CI[X(C2H6)]
 Deg. of freedom     9
 Full point group                 CI      NOp   2
 Largest Abelian subgroup         CI      NOp   2
 Largest concise Abelian subgroup CI      NOp   2
                         Standard orientation:                         
 ---------------------------------------------------------------------
 Center     Atomic      Atomic             Coordinates (Angstroms)
 Number     Number       Type             X           Y           Z
 ---------------------------------------------------------------------
      1          6           0       -0.407764    0.644736    0.000025
      2          6           0        0.407764   -0.644736   -0.000025
      3          1           0       -1.346070    0.520187    0.548464
      4          1           0       -0.657924    0.955233   -1.018631
      5          1           0        0.144971    1.463225    0.470292
      6          1           0       -0.144971   -1.463225   -0.470292
      7          1           0        0.657924   -0.955233    1.018631
      8          1           0        1.346070   -0.520187   -0.548464
 ---------------------------------------------------------------------
 Rotational constants (GHZ):     80.3886711     20.0278634     20.0268255

 **********************************************************************

            Population analysis using the SCF density.

 **********************************************************************

 Orbital symmetries:
       Occupied  (AG) (AU) (AG) (AU) (AU) (AU) (AG) (AG) (AG)
       Virtual   (AG) (AU) (AU) (AU) (AG) (AG) (AU) (AG) (AU) (AU)
                 (AG) (AG) (AU) (AU) (AU) (AG) (AG) (AG) (AU) (AG)
                 (AU) (AU) (AU) (AG) (AG) (AG) (AU) (AU) (AG) (AG)
                 (AU) (AG) (AU)
 The electronic state is 1-AG.
 Alpha  occ. eigenvalues --  -10.52944 -10.52909  -0.84503  -0.69670  -0.49912
 Alpha  occ. eigenvalues --   -0.49902  -0.42355  -0.39998  -0.39988
 Alpha virt. eigenvalues --    0.15070   0.20645   0.21253   0.21256   0.23676
 Alpha virt. eigenvalues --    0.23679   0.28842   0.56035   0.58892   0.58899
 Alpha virt. eigenvalues --    0.68607   0.68615   0.73521   0.95087   0.95096
 Alpha virt. eigenvalues --    0.98405   0.98931   0.98951   1.05585   1.10581
 Alpha virt. eigenvalues --    1.47382   1.58222   1.58237   1.98400   2.03584
 Alpha virt. eigenvalues --    2.03594   2.33268   2.33269   2.38195   2.38219
 Alpha virt. eigenvalues --    2.62134   4.18376   4.40019
          Condensed to atoms (all electrons):
               1          2          3          4          5          6
     1  C    5.064467   0.356073   0.388026   0.388025   0.388034  -0.035285
     2  C    0.356073   5.064467  -0.035296  -0.035327  -0.035285   0.388034
     3  H    0.388026  -0.035296   0.549978  -0.029752  -0.029756  -0.003543
     4  H    0.388025  -0.035327  -0.029752   0.549919  -0.029698  -0.003537
     5  H    0.388034  -0.035285  -0.029756  -0.029698   0.549843   0.004338
     6  H   -0.035285   0.388034  -0.003543  -0.003537   0.004338   0.549843
     7  H   -0.035327   0.388025  -0.003540   0.004341  -0.003537  -0.029698
     8  H   -0.035296   0.388026   0.004340  -0.003540  -0.003543  -0.029756
               7          8
     1  C   -0.035327  -0.035296
     2  C    0.388025   0.388026
     3  H   -0.003540   0.004340
     4  H    0.004341  -0.003540
     5  H   -0.003537  -0.003543
     6  H   -0.029698  -0.029756
     7  H    0.549919  -0.029752
     8  H   -0.029752   0.549978
 Mulliken charges:
               1
     1  C   -0.478717
     2  C   -0.478717
     3  H    0.159544
     4  H    0.159569
     5  H    0.159603
     6  H    0.159603
     7  H    0.159569
     8  H    0.159544
 Sum of Mulliken charges =   0.00000
 Mulliken charges with hydrogens summed into heavy atoms:
               1
     1  C    0.000000
     2  C    0.000000
 Electronic spatial extent (au):  <R**2>=            109.2859
 Charge=              0.0000 electrons
 Dipole moment (field-independent basis, Debye):
    X=              0.0000    Y=              0.0000    Z=              0.0000  Tot=              0.0000
 Quadrupole moment (field-independent basis, Debye-Ang):
   XX=            -14.8979   YY=            -15.1289   ZZ=            -14.7427
   XY=              0.2439   XZ=              0.0007   YZ=              0.0013
 Traceless Quadrupole moment (field-independent basis, Debye-Ang):
   XX=              0.0253   YY=             -0.2057   ZZ=              0.1804
   XY=              0.2439   XZ=              0.0007   YZ=              0.0013
 Octapole moment (field-independent basis, Debye-Ang**2):
  XXX=              0.0000  YYY=              0.0000  ZZZ=              0.0000  XYY=              0.0000
  XXY=              0.0000  XXZ=              0.0000  XZZ=              0.0000  YZZ=              0.0000
  YYZ=              0.0000  XYZ=              0.0000
 Hexadecapole moment (field-independent basis, Debye-Ang**3):
 XXXX=            -45.6148 YYYY=            -72.7199 ZZZZ=            -28.5430 XXXY=             13.7545
 XXXZ=             -1.5026 YYYX=             15.2400 YYYZ=              0.9532 ZZZX=              0.7032
 ZZZY=             -1.1105 XXYY=            -20.3798 XXZZ=            -12.0662 YYZZ=            -16.4477
 XXYZ=              0.1576 YYXZ=              0.8021 ZZXY=              4.2103
 N-N= 4.222277922035D+01 E-N=-2.682230069829D+02  KE= 7.902789682925D+01
 Symmetry AG   KE= 4.102903423603D+01
 Symmetry AU   KE= 3.799886259322D+01
 1\1\GINC-N0297\FOpt\RM062X\6-31G(d)\C2H6\TAIYUPAN\23-Feb-2017\0\\#n M0
 62X/6-31G(d) Opt\\CH3_M062X/3-21G\\0,1\C,-1.7668537829,1.600461441,0.0
 000250003\C,-0.9513262171,0.310988559,-0.0000250003\H,-2.7051604839,1.
 4759124269,0.5484635698\H,-2.0170137152,1.9109582458,-1.0186314845\H,-
 1.2141187514,2.4189502092,0.4702921758\H,-1.5040612486,-0.5075002092,-
 0.4702921758\H,-0.7011662848,0.0004917542,1.0186314845\H,-0.0130195161
 ,0.4355375731,-0.5484635698\\Version=ES64L-G09RevE.01\State=1-AG\HF=-7
 9.7718334\RMSD=2.498e-09\RMSF=9.232e-05\Dipole=0.,0.,0.\Quadrupole=0.0
 187922,-0.1529482,0.134156,0.1813543,0.0005382,0.0009405\PG=CI [X(C2H6
 )]\\@


 SUCCESS-- IF YOU HAVE TRIED TO DO SOMETHING AND FAILED
           YOU ARE BETTER OFF THAN IF YOU HAD TRIED TO DO
           NOTHING AND SUCCEEDED.

                   -- FROM THE BACK OF A SUGAR PACKET
 Job cpu time:       0 days  0 hours  0 minutes 38.5 seconds.
 File lengths (MBytes):  RWF=      5 Int=      0 D2E=      0 Chk=      1 Scr=      1
 Normal termination of Gaussian 09 at Thu Feb 23 18:28:10 2017.
