 Entering Gaussian System, Link 0=g09
 Input=CH_MX_6Gd.com
 Output=CH_MX_6Gd.log
 Initial command:
 /sw/contrib/gaussian/g09/E01/g09/l1.exe "/scr/Gau-23330.inp" -scrdir="/scr/"
 Entering Link 1 = /sw/contrib/gaussian/g09/E01/g09/l1.exe PID=     23331.
  
 Copyright (c) 1988,1990,1992,1993,1995,1998,2003,2009,2015,
            Gaussian, Inc.  All Rights Reserved.
  
 This is part of the Gaussian(R) 09 program.  It is based on
 the Gaussian(R) 03 system (copyright 2003, Gaussian, Inc.),
 the Gaussian(R) 98 system (copyright 1998, Gaussian, Inc.),
 the Gaussian(R) 94 system (copyright 1995, Gaussian, Inc.),
 the Gaussian 92(TM) system (copyright 1992, Gaussian, Inc.),
 the Gaussian 90(TM) system (copyright 1990, Gaussian, Inc.),
 the Gaussian 88(TM) system (copyright 1988, Gaussian, Inc.),
 the Gaussian 86(TM) system (copyright 1986, Carnegie Mellon
 University), and the Gaussian 82(TM) system (copyright 1983,
 Carnegie Mellon University). Gaussian is a federally registered
 trademark of Gaussian, Inc.
  
 This software contains proprietary and confidential information,
 including trade secrets, belonging to Gaussian, Inc.
  
 This software is provided under written license and may be
 used, copied, transmitted, or stored only in accord with that
 written license.
  
 The following legend is applicable only to US Government
 contracts under FAR:
  
                    RESTRICTED RIGHTS LEGEND
  
 Use, reproduction and disclosure by the US Government is
 subject to restrictions as set forth in subparagraphs (a)
 and (c) of the Commercial Computer Software - Restricted
 Rights clause in FAR 52.227-19.
  
 Gaussian, Inc.
 340 Quinnipiac St., Bldg. 40, Wallingford CT 06492
  
  
 ---------------------------------------------------------------
 Warning -- This program may not be used in any manner that
 competes with the business of Gaussian, Inc. or will provide
 assistance to any competitor of Gaussian, Inc.  The licensee
 of this program is prohibited from giving any competitor of
 Gaussian, Inc. access to this program.  By using this program,
 the user acknowledges that Gaussian, Inc. is engaged in the
 business of creating and licensing software in the field of
 computational chemistry and represents and warrants to the
 licensee that it is not a competitor of Gaussian, Inc. and that
 it will not use this program in any manner prohibited above.
 ---------------------------------------------------------------
  

 Cite this work as:
 Gaussian 09, Revision E.01,
 M. J. Frisch, G. W. Trucks, H. B. Schlegel, G. E. Scuseria, 
 M. A. Robb, J. R. Cheeseman, G. Scalmani, V. Barone, B. Mennucci, 
 G. A. Petersson, H. Nakatsuji, M. Caricato, X. Li, H. P. Hratchian, 
 A. F. Izmaylov, J. Bloino, G. Zheng, J. L. Sonnenberg, M. Hada, 
 M. Ehara, K. Toyota, R. Fukuda, J. Hasegawa, M. Ishida, T. Nakajima, 
 Y. Honda, O. Kitao, H. Nakai, T. Vreven, J. A. Montgomery, Jr., 
 J. E. Peralta, F. Ogliaro, M. Bearpark, J. J. Heyd, E. Brothers, 
 K. N. Kudin, V. N. Staroverov, T. Keith, R. Kobayashi, J. Normand, 
 K. Raghavachari, A. Rendell, J. C. Burant, S. S. Iyengar, J. Tomasi, 
 M. Cossi, N. Rega, J. M. Millam, M. Klene, J. E. Knox, J. B. Cross, 
 V. Bakken, C. Adamo, J. Jaramillo, R. Gomperts, R. E. Stratmann, 
 O. Yazyev, A. J. Austin, R. Cammi, C. Pomelli, J. W. Ochterski, 
 R. L. Martin, K. Morokuma, V. G. Zakrzewski, G. A. Voth, 
 P. Salvador, J. J. Dannenberg, S. Dapprich, A. D. Daniels, 
 O. Farkas, J. B. Foresman, J. V. Ortiz, J. Cioslowski, 
 and D. J. Fox, Gaussian, Inc., Wallingford CT, 2013.
 
 ******************************************
 Gaussian 09:  ES64L-G09RevE.01 30-Nov-2015
                23-Feb-2017 
 ******************************************
 %NProcShared=8
 Will use up to    8 processors via shared memory.
 ---------------------
 #n M062X/6-31G(d) Opt
 ---------------------
 1/14=-1,18=20,19=15,26=3,38=1/1,3;
 2/9=110,12=2,17=6,18=5,40=1/2;
 3/5=1,6=6,7=1,11=2,16=1,25=1,30=1,71=1,74=-55/1,2,3;
 4//1;
 5/5=2,38=5/2;
 6/7=2,8=2,9=2,10=2,28=1/1;
 7//1,2,3,16;
 1/14=-1,18=20,19=15,26=3/3(2);
 2/9=110/2;
 99//99;
 2/9=110/2;
 3/5=1,6=6,7=1,11=2,16=1,25=1,30=1,71=1,74=-55/1,2,3;
 4/5=5,16=3,69=1/1;
 5/5=2,38=5/2;
 7//1,2,3,16;
 1/14=-1,18=20,19=15,26=3/3(-5);
 2/9=110/2;
 6/7=2,8=2,9=2,10=2,19=2,28=1/1;
 99/9=1/99;
 --------------
 CH_M062X/3-21G
 --------------
 Symbolic Z-matrix:
 Charge =  0 Multiplicity = 1
 C                     0.81212   0.92205   2.25756 
 C                    -0.25466   0.80282   1.70927 
 H                     1.74883   1.02674   2.739 
 H                    -1.19137   0.69814   1.22782 
 

 GradGradGradGradGradGradGradGradGradGradGradGradGradGradGradGradGradGrad
 Berny optimization.
 Initialization pass.
                           ----------------------------
                           !    Initial Parameters    !
                           ! (Angstroms and Degrees)  !
 --------------------------                            --------------------------
 ! Name  Definition              Value          Derivative Info.                !
 --------------------------------------------------------------------------------
 ! R1    R(1,2)                  1.2053         estimate D2E/DX2                !
 ! R2    R(1,3)                  1.0584         estimate D2E/DX2                !
 ! R3    R(2,4)                  1.0584         estimate D2E/DX2                !
 ! A1    L(2,1,3,-2,-1)        180.0001         estimate D2E/DX2                !
 ! A2    L(1,2,4,-2,-1)        180.0006         estimate D2E/DX2                !
 ! A3    L(2,1,3,-3,-2)        180.0002         estimate D2E/DX2                !
 ! A4    L(1,2,4,-3,-2)        180.0008         estimate D2E/DX2                !
 --------------------------------------------------------------------------------
 Trust Radius=3.00D-01 FncErr=1.00D-07 GrdErr=1.00D-06
 Number of steps in this run=     20 maximum allowed number of steps=    100.
 GradGradGradGradGradGradGradGradGradGradGradGradGradGradGradGradGradGrad

                          Input orientation:                          
 ---------------------------------------------------------------------
 Center     Atomic      Atomic             Coordinates (Angstroms)
 Number     Number       Type             X           Y           Z
 ---------------------------------------------------------------------
      1          6           0        0.812120    0.922050    2.257560
      2          6           0       -0.254660    0.802820    1.709270
      3          1           0        1.748830    1.026740    2.739000
      4          1           0       -1.191370    0.698140    1.227820
 ---------------------------------------------------------------------
                    Distance matrix (angstroms):
                    1          2          3          4
     1  C    0.000000
     2  C    1.205345   0.000000
     3  H    1.058381   2.263726   0.000000
     4  H    2.263730   1.058384   3.322111   0.000000
 Stoichiometry    C2H2
 Framework group  C*V[C*(HCCH)]
 Deg. of freedom     3
 Full point group                 C*V     NOp   4
 Largest Abelian subgroup         C2V     NOp   4
 Largest concise Abelian subgroup C1      NOp   1
                         Standard orientation:                         
 ---------------------------------------------------------------------
 Center     Atomic      Atomic             Coordinates (Angstroms)
 Number     Number       Type             X           Y           Z
 ---------------------------------------------------------------------
      1          6           0        0.000000    0.000000    0.602673
      2          6           0        0.000000    0.000000   -0.602672
      3          1           0        0.000000    0.000000    1.661054
      4          1           0        0.000000    0.000000   -1.661057
 ---------------------------------------------------------------------
 Rotational constants (GHZ):      0.0000000     35.3943217     35.3943217
 Standard basis: 6-31G(d) (6D, 7F)
 There are    20 symmetry adapted cartesian basis functions of A1  symmetry.
 There are     2 symmetry adapted cartesian basis functions of A2  symmetry.
 There are     6 symmetry adapted cartesian basis functions of B1  symmetry.
 There are     6 symmetry adapted cartesian basis functions of B2  symmetry.
 There are    20 symmetry adapted basis functions of A1  symmetry.
 There are     2 symmetry adapted basis functions of A2  symmetry.
 There are     6 symmetry adapted basis functions of B1  symmetry.
 There are     6 symmetry adapted basis functions of B2  symmetry.
    34 basis functions,    64 primitive gaussians,    34 cartesian basis functions
     7 alpha electrons        7 beta electrons
       nuclear repulsion energy        24.7692072136 Hartrees.
 NAtoms=    4 NActive=    4 NUniq=    4 SFac= 1.00D+00 NAtFMM=   60 NAOKFM=F Big=F
 Integral buffers will be    131072 words long.
 Raffenetti 2 integral format.
 Two-electron integral symmetry is turned on.
 One-electron integrals computed using PRISM.
 NBasis=    34 RedAO= T EigKep=  2.04D-03  NBF=    20     2     6     6
 NBsUse=    34 1.00D-06 EigRej= -1.00D+00 NBFU=    20     2     6     6
 ExpMin= 1.61D-01 ExpMax= 3.05D+03 ExpMxC= 4.57D+02 IAcc=1 IRadAn=         1 AccDes= 0.00D+00
 Harris functional with IExCor= 1009 and IRadAn=       1 diagonalized for initial guess.
 HarFok:  IExCor= 1009 AccDes= 0.00D+00 IRadAn=         1 IDoV= 1 UseB2=F ITyADJ=14
 ICtDFT=  3500011 ScaDFX=  1.000000  1.000000  1.000000  1.000000
 FoFCou: FMM=F IPFlag=           0 FMFlag=      100000 FMFlg1=           0
         NFxFlg=           0 DoJE=T BraDBF=F KetDBF=T FulRan=T
         wScrn=  0.000000 ICntrl=     500 IOpCl=  0 I1Cent=   200000004 NGrid=           0
         NMat0=    1 NMatS0=      1 NMatT0=    0 NMatD0=    1 NMtDS0=    0 NMtDT0=    0
 Petite list used in FoFCou.
 Initial guess orbital symmetries:
       Occupied  (SG) (SG) (SG) (SG) (SG) (PI) (PI)
       Virtual   (PI) (PI) (SG) (SG) (SG) (SG) (PI) (PI) (PI) (PI)
                 (SG) (SG) (SG) (SG) (PI) (PI) (DLTA) (DLTA) (SG)
                 (DLTA) (DLTA) (SG) (PI) (PI) (SG) (SG) (SG)
 The electronic state of the initial guess is 1-SG.
 Keep R1 ints in memory in symmetry-blocked form, NReq=1063218.
 Requested convergence on RMS density matrix=1.00D-08 within 128 cycles.
 Requested convergence on MAX density matrix=1.00D-06.
 Requested convergence on             energy=1.00D-06.
 No special actions if energy rises.
 Integral accuracy reduced to 1.0D-05 until final iterations.
 Initial convergence to 1.0D-05 achieved.  Increase integral accuracy.
 SCF Done:  E(RM062X) =  -77.2876297747     A.U. after   12 cycles
            NFock= 12  Conv=0.19D-08     -V/T= 2.0088

 **********************************************************************

            Population analysis using the SCF density.

 **********************************************************************

 Orbital symmetries:
       Occupied  (SG) (SG) (SG) (SG) (SG) (PI) (PI)
       Virtual   (PI) (PI) (SG) (SG) (SG) (SG) (PI) (PI) (PI) (PI)
                 (SG) (SG) (SG) (SG) (SG) (PI) (PI) (DLTA) (DLTA)
                 (DLTA) (DLTA) (SG) (PI) (PI) (SG) (SG) (SG)
 The electronic state is 1-SG.
 Alpha  occ. eigenvalues --  -10.55038 -10.54772  -0.83709  -0.64179  -0.55642
 Alpha  occ. eigenvalues --   -0.34260  -0.34260
 Alpha virt. eigenvalues --    0.09911   0.09911   0.15952   0.20544   0.47932
 Alpha virt. eigenvalues --    0.51653   0.58912   0.58912   0.71821   0.71821
 Alpha virt. eigenvalues --    0.79184   0.88235   1.09592   1.30055   1.55337
 Alpha virt. eigenvalues --    1.56478   1.56478   1.59171   1.59172   1.98444
 Alpha virt. eigenvalues --    1.98445   2.48749   2.52923   2.52923   3.22180
 Alpha virt. eigenvalues --    4.17752   4.38715
          Condensed to atoms (all electrons):
               1          2          3          4
     1  C    4.872093   1.020194   0.355220  -0.026560
     2  C    1.020194   4.872095  -0.026561   0.355219
     3  H    0.355220  -0.026561   0.448536   0.001859
     4  H   -0.026560   0.355219   0.001859   0.448535
 Mulliken charges:
               1
     1  C   -0.220947
     2  C   -0.220947
     3  H    0.220946
     4  H    0.220947
 Sum of Mulliken charges =   0.00000
 Mulliken charges with hydrogens summed into heavy atoms:
               1
     1  C    0.000000
     2  C    0.000000
 Electronic spatial extent (au):  <R**2>=             59.7373
 Charge=              0.0000 electrons
 Dipole moment (field-independent basis, Debye):
    X=              0.0000    Y=              0.0000    Z=              0.0000  Tot=              0.0000
 Quadrupole moment (field-independent basis, Debye-Ang):
   XX=            -13.1116   YY=            -13.1116   ZZ=             -6.6854
   XY=              0.0000   XZ=              0.0000   YZ=              0.0000
 Traceless Quadrupole moment (field-independent basis, Debye-Ang):
   XX=             -2.1421   YY=             -2.1421   ZZ=              4.2841
   XY=              0.0000   XZ=              0.0000   YZ=              0.0000
 Octapole moment (field-independent basis, Debye-Ang**2):
  XXX=              0.0000  YYY=              0.0000  ZZZ=              0.0000  XYY=              0.0000
  XXY=              0.0000  XXZ=              0.0000  XZZ=              0.0000  YZZ=              0.0000
  YYZ=              0.0000  XYZ=              0.0000
 Hexadecapole moment (field-independent basis, Debye-Ang**3):
 XXXX=            -13.5211 YYYY=            -13.5211 ZZZZ=            -37.0822 XXXY=              0.0000
 XXXZ=              0.0000 YYYX=              0.0000 YYYZ=              0.0000 ZZZX=              0.0000
 ZZZY=              0.0000 XXYY=             -4.5070 XXZZ=            -11.5648 YYZZ=            -11.5648
 XXYZ=              0.0000 YYXZ=              0.0000 ZZXY=              0.0000
 N-N= 2.476920721361D+01 E-N=-2.285326994730D+02  KE= 7.661043659827D+01
 Symmetry A1   KE= 7.221572969190D+01
 Symmetry A2   KE= 9.089135912393D-33
 Symmetry B1   KE= 2.197353453182D+00
 Symmetry B2   KE= 2.197353453182D+00
 Calling FoFJK, ICntrl=      2127 FMM=F ISym2X=1 I1Cent= 0 IOpClX= 0 NMat=1 NMatS=1 NMatT=0.
 ***** Axes restored to original set *****
 -------------------------------------------------------------------
 Center     Atomic                   Forces (Hartrees/Bohr)
 Number     Number              X              Y              Z
 -------------------------------------------------------------------
      1        6          -0.013219055   -0.001477406   -0.006794195
      2        6           0.013216421    0.001477112    0.006792842
      3        1           0.006313898    0.000705663    0.003245153
      4        1          -0.006311264   -0.000705368   -0.003243799
 -------------------------------------------------------------------
 Cartesian Forces:  Max     0.013219055 RMS     0.006756674

 GradGradGradGradGradGradGradGradGradGradGradGradGradGradGradGradGradGrad
 Berny optimization.
 FormGI is forming the generalized inverse of G from B-inverse, IUseBI=4.
 Internal  Forces:  Max     0.007802082 RMS     0.004819879
 Search for a local minimum.
 Step number   1 out of a maximum of   20
 All quantities printed in internal units (Hartrees-Bohrs-Radians)
 Mixed Optimization -- RFO/linear search
 Second derivative matrix not updated -- first step.
 The second derivative matrix:
                          R1        R2        R3        A1        A2
           R1           1.02182
           R2           0.00000   0.38738
           R3           0.00000   0.00000   0.38738
           A1           0.00000   0.00000   0.00000   0.00653
           A2           0.00000   0.00000   0.00000   0.00000   0.00653
           A3           0.00000   0.00000   0.00000   0.00000   0.00000
           A4           0.00000   0.00000   0.00000   0.00000   0.00000
                          A3        A4
           A3           0.00653
           A4           0.00000   0.00653
 ITU=  0
     Eigenvalues ---    0.00653   0.00653   0.00653   0.00653   0.38738
     Eigenvalues ---    0.38738   1.02182
 RFO step:  Lambda=-3.21988404D-04 EMin= 6.53043272D-03
 Linear search not attempted -- first point.
 Iteration  1 RMS(Cart)=  0.00805618 RMS(Int)=  0.00000001
 Iteration  2 RMS(Cart)=  0.00000001 RMS(Int)=  0.00000001
 ClnCor:  largest displacement from symmetrization is 1.06D-08 for atom     2.
 Variable       Old X    -DE/DX   Delta X   Delta X   Delta X     New X
                                 (Linear)    (Quad)   (Total)
    R1        2.27777  -0.00780   0.00000  -0.00763  -0.00763   2.27014
    R2        2.00005   0.00713   0.00000   0.01840   0.01840   2.01845
    R3        2.00006   0.00713   0.00000   0.01839   0.01839   2.01845
    A1        3.14159   0.00000   0.00000   0.00000   0.00000   3.14159
    A2        3.14159   0.00000   0.00000   0.00000   0.00000   3.14159
    A3        3.14159   0.00000   0.00000   0.00000   0.00000   3.14159
    A4        3.14159   0.00000   0.00000   0.00000   0.00000   3.14159
         Item               Value     Threshold  Converged?
 Maximum Force            0.007802     0.000450     NO 
 RMS     Force            0.004820     0.000300     NO 
 Maximum Displacement     0.012906     0.001800     NO 
 RMS     Displacement     0.008056     0.001200     NO 
 Predicted change in Energy=-1.611126D-04
 GradGradGradGradGradGradGradGradGradGradGradGradGradGradGradGradGradGrad

                          Input orientation:                          
 ---------------------------------------------------------------------
 Center     Atomic      Atomic             Coordinates (Angstroms)
 Number     Number       Type             X           Y           Z
 ---------------------------------------------------------------------
      1          6           0        0.810331    0.921849    2.256641
      2          6           0       -0.252873    0.803022    1.710186
      3          1           0        1.755659    1.027502    2.742511
      4          1           0       -1.198200    0.697369    1.224317
 ---------------------------------------------------------------------
                    Distance matrix (angstroms):
                    1          2          3          4
     1  C    0.000000
     2  C    1.201306   0.000000
     3  H    1.068118   2.269424   0.000000
     4  H    2.269424   1.068118   3.337542   0.000000
 Stoichiometry    C2H2
 Framework group  C*V[C*(HCCH)]
 Deg. of freedom     3
 Full point group                 C*V     NOp   4
 Largest Abelian subgroup         C2V     NOp   4
 Largest concise Abelian subgroup C1      NOp   1
                         Standard orientation:                         
 ---------------------------------------------------------------------
 Center     Atomic      Atomic             Coordinates (Angstroms)
 Number     Number       Type             X           Y           Z
 ---------------------------------------------------------------------
      1          6           0        0.000000    0.000000    0.600653
      2          6           0        0.000000    0.000000   -0.600653
      3          1           0        0.000000    0.000000    1.668771
      4          1           0        0.000000    0.000000   -1.668771
 ---------------------------------------------------------------------
 Rotational constants (GHZ):      0.0000000     35.4105416     35.4105416
 Standard basis: 6-31G(d) (6D, 7F)
 There are    20 symmetry adapted cartesian basis functions of A1  symmetry.
 There are     2 symmetry adapted cartesian basis functions of A2  symmetry.
 There are     6 symmetry adapted cartesian basis functions of B1  symmetry.
 There are     6 symmetry adapted cartesian basis functions of B2  symmetry.
 There are    20 symmetry adapted basis functions of A1  symmetry.
 There are     2 symmetry adapted basis functions of A2  symmetry.
 There are     6 symmetry adapted basis functions of B1  symmetry.
 There are     6 symmetry adapted basis functions of B2  symmetry.
    34 basis functions,    64 primitive gaussians,    34 cartesian basis functions
     7 alpha electrons        7 beta electrons
       nuclear repulsion energy        24.7598867600 Hartrees.
 NAtoms=    4 NActive=    4 NUniq=    4 SFac= 1.00D+00 NAtFMM=   60 NAOKFM=F Big=F
 Integral buffers will be    131072 words long.
 Raffenetti 2 integral format.
 Two-electron integral symmetry is turned on.
 One-electron integrals computed using PRISM.
 NBasis=    34 RedAO= T EigKep=  2.01D-03  NBF=    20     2     6     6
 NBsUse=    34 1.00D-06 EigRej= -1.00D+00 NBFU=    20     2     6     6
 Initial guess from the checkpoint file:  "/scr/Gau-23331.chk"
 B after Tr=     0.000000    0.000000    0.000000
         Rot=    1.000000    0.000000    0.000000    0.000000 Ang=   0.00 deg.
 Initial guess orbital symmetries:
       Occupied  (SG) (SG) (SG) (SG) (SG) (PI) (PI)
       Virtual   (SG) (SG) (SG) (SG) (SG) (DLTA) (SG) (DLTA) (SG)
                 (SG) (SG) (SG) (SG) (SG) (SG) (DLTA) (DLTA) (PI)
                 (PI) (PI) (PI) (PI) (PI) (PI) (PI) (PI) (PI)
 Keep R1 ints in memory in symmetry-blocked form, NReq=1063218.
 Requested convergence on RMS density matrix=1.00D-08 within 128 cycles.
 Requested convergence on MAX density matrix=1.00D-06.
 Requested convergence on             energy=1.00D-06.
 No special actions if energy rises.
 SCF Done:  E(RM062X) =  -77.2877693621     A.U. after    8 cycles
            NFock=  8  Conv=0.13D-08     -V/T= 2.0090
 Calling FoFJK, ICntrl=      2127 FMM=F ISym2X=1 I1Cent= 0 IOpClX= 0 NMat=1 NMatS=1 NMatT=0.
 ***** Axes restored to original set *****
 -------------------------------------------------------------------
 Center     Atomic                   Forces (Hartrees/Bohr)
 Number     Number              X              Y              Z
 -------------------------------------------------------------------
      1        6           0.001911406    0.000213625    0.000982405
      2        6          -0.001911140   -0.000213595   -0.000982268
      3        1          -0.000713229   -0.000079713   -0.000366578
      4        1           0.000712964    0.000079683    0.000366442
 -------------------------------------------------------------------
 Cartesian Forces:  Max     0.001911406 RMS     0.000940989

 GradGradGradGradGradGradGradGradGradGradGradGradGradGradGradGradGradGrad
 Berny optimization.
 Using GEDIIS/GDIIS optimizer.
 FormGI is forming the generalized inverse of G from B-inverse, IUseBI=4.
 Internal  Forces:  Max     0.001353810 RMS     0.000668813
 Search for a local minimum.
 Step number   2 out of a maximum of   20
 All quantities printed in internal units (Hartrees-Bohrs-Radians)
 Mixed Optimization -- En-DIIS/RFO-DIIS
 Update second derivatives using D2CorX and points    1    2
 DE= -1.40D-04 DEPred=-1.61D-04 R= 8.66D-01
 TightC=F SS=  1.41D+00  RLast= 2.71D-02 DXNew= 5.0454D-01 8.1342D-02
 Trust test= 8.66D-01 RLast= 2.71D-02 DXMaxT set to 3.00D-01
 The second derivative matrix:
                          R1        R2        R3        A1        A2
           R1           1.06435
           R2          -0.02804   0.40363
           R3          -0.02803   0.01624   0.40361
           A1           0.00000   0.00000   0.00000   0.00653
           A2           0.00000   0.00000   0.00000   0.00000   0.00653
           A3           0.00000   0.00000   0.00000   0.00000   0.00000
           A4           0.00000   0.00000   0.00000   0.00000   0.00000
                          A3        A4
           A3           0.00653
           A4           0.00000   0.00653
 ITU=  1  0
 Use linear search instead of GDIIS.
     Eigenvalues ---    0.00653   0.00653   0.00653   0.00653   0.38738
     Eigenvalues ---    0.41743   1.06678
 RFO step:  Lambda=-1.30683192D-07 EMin= 6.53043272D-03
 Quartic linear search produced a step of -0.11279.
 Iteration  1 RMS(Cart)=  0.00076337 RMS(Int)=  0.00000000
 Iteration  2 RMS(Cart)=  0.00000000 RMS(Int)=  0.00000001
 ClnCor:  largest displacement from symmetrization is 5.29D-09 for atom     1.
 Variable       Old X    -DE/DX   Delta X   Delta X   Delta X     New X
                                 (Linear)    (Quad)   (Total)
    R1        2.27014   0.00135   0.00086   0.00032   0.00118   2.27132
    R2        2.01845  -0.00081  -0.00208   0.00018  -0.00189   2.01656
    R3        2.01845  -0.00081  -0.00207   0.00018  -0.00189   2.01656
    A1        3.14159   0.00000   0.00000   0.00000   0.00000   3.14159
    A2        3.14159   0.00000   0.00000   0.00000   0.00000   3.14159
    A3        3.14159   0.00000   0.00000   0.00000   0.00000   3.14159
    A4        3.14159   0.00000   0.00000   0.00000   0.00000   3.14159
         Item               Value     Threshold  Converged?
 Maximum Force            0.001354     0.000450     NO 
 RMS     Force            0.000669     0.000300     NO 
 Maximum Displacement     0.001151     0.001800     YES
 RMS     Displacement     0.000763     0.001200     YES
 Predicted change in Energy=-2.277230D-06
 GradGradGradGradGradGradGradGradGradGradGradGradGradGradGradGradGradGrad

                          Input orientation:                          
 ---------------------------------------------------------------------
 Center     Atomic      Atomic             Coordinates (Angstroms)
 Number     Number       Type             X           Y           Z
 ---------------------------------------------------------------------
      1          6           0        0.810608    0.921880    2.256784
      2          6           0       -0.253149    0.802991    1.710044
      3          1           0        1.755050    1.027434    2.742198
      4          1           0       -1.197591    0.697437    1.224630
 ---------------------------------------------------------------------
                    Distance matrix (angstroms):
                    1          2          3          4
     1  C    0.000000
     2  C    1.201931   0.000000
     3  H    1.067117   2.269048   0.000000
     4  H    2.269048   1.067117   3.336166   0.000000
 Stoichiometry    C2H2
 Framework group  C*V[C*(HCCH)]
 Deg. of freedom     3
 Full point group                 C*V     NOp   4
 Largest Abelian subgroup         C2V     NOp   4
 Largest concise Abelian subgroup C1      NOp   1
                         Standard orientation:                         
 ---------------------------------------------------------------------
 Center     Atomic      Atomic             Coordinates (Angstroms)
 Number     Number       Type             X           Y           Z
 ---------------------------------------------------------------------
      1          6           0        0.000000    0.000000    0.600965
      2          6           0        0.000000    0.000000   -0.600965
      3          1           0        0.000000    0.000000    1.668083
      4          1           0        0.000000    0.000000   -1.668083
 ---------------------------------------------------------------------
 Rotational constants (GHZ):      0.0000000     35.3996772     35.3996772
 Standard basis: 6-31G(d) (6D, 7F)
 There are    20 symmetry adapted cartesian basis functions of A1  symmetry.
 There are     2 symmetry adapted cartesian basis functions of A2  symmetry.
 There are     6 symmetry adapted cartesian basis functions of B1  symmetry.
 There are     6 symmetry adapted cartesian basis functions of B2  symmetry.
 There are    20 symmetry adapted basis functions of A1  symmetry.
 There are     2 symmetry adapted basis functions of A2  symmetry.
 There are     6 symmetry adapted basis functions of B1  symmetry.
 There are     6 symmetry adapted basis functions of B2  symmetry.
    34 basis functions,    64 primitive gaussians,    34 cartesian basis functions
     7 alpha electrons        7 beta electrons
       nuclear repulsion energy        24.7577468337 Hartrees.
 NAtoms=    4 NActive=    4 NUniq=    4 SFac= 1.00D+00 NAtFMM=   60 NAOKFM=F Big=F
 Integral buffers will be    131072 words long.
 Raffenetti 2 integral format.
 Two-electron integral symmetry is turned on.
 One-electron integrals computed using PRISM.
 NBasis=    34 RedAO= T EigKep=  2.02D-03  NBF=    20     2     6     6
 NBsUse=    34 1.00D-06 EigRej= -1.00D+00 NBFU=    20     2     6     6
 Initial guess from the checkpoint file:  "/scr/Gau-23331.chk"
 B after Tr=     0.000000    0.000000    0.000000
         Rot=    1.000000    0.000000    0.000000    0.000000 Ang=   0.00 deg.
 Initial guess orbital symmetries:
       Occupied  (SG) (SG) (SG) (SG) (SG) (PI) (PI)
       Virtual   (SG) (SG) (SG) (SG) (SG) (DLTA) (SG) (DLTA) (SG)
                 (SG) (SG) (SG) (SG) (SG) (SG) (DLTA) (DLTA) (PI)
                 (PI) (PI) (PI) (PI) (PI) (PI) (PI) (PI) (PI)
 Keep R1 ints in memory in symmetry-blocked form, NReq=1063218.
 Requested convergence on RMS density matrix=1.00D-08 within 128 cycles.
 Requested convergence on MAX density matrix=1.00D-06.
 Requested convergence on             energy=1.00D-06.
 No special actions if energy rises.
 SCF Done:  E(RM062X) =  -77.2877716673     A.U. after    6 cycles
            NFock=  6  Conv=0.69D-08     -V/T= 2.0090
 Calling FoFJK, ICntrl=      2127 FMM=F ISym2X=1 I1Cent= 0 IOpClX= 0 NMat=1 NMatS=1 NMatT=0.
 ***** Axes restored to original set *****
 -------------------------------------------------------------------
 Center     Atomic                   Forces (Hartrees/Bohr)
 Number     Number              X              Y              Z
 -------------------------------------------------------------------
      1        6          -0.000048527   -0.000005424   -0.000024941
      2        6           0.000048561    0.000005427    0.000024959
      3        1          -0.000009460   -0.000001057   -0.000004862
      4        1           0.000009425    0.000001053    0.000004844
 -------------------------------------------------------------------
 Cartesian Forces:  Max     0.000048561 RMS     0.000022812

 GradGradGradGradGradGradGradGradGradGradGradGradGradGradGradGradGradGrad
 Berny optimization.
 Using GEDIIS/GDIIS optimizer.
 FormGI is forming the generalized inverse of G from B-inverse, IUseBI=4.
 Internal  Forces:  Max     0.000065518 RMS     0.000025412
 Search for a local minimum.
 Step number   3 out of a maximum of   20
 All quantities printed in internal units (Hartrees-Bohrs-Radians)
 Mixed Optimization -- En-DIIS/RFO-DIIS
 Swapping is turned off.
 Update second derivatives using D2CorX and points    1    2    3
 DE= -2.31D-06 DEPred=-2.28D-06 R= 1.01D+00
 TightC=F SS=  1.41D+00  RLast= 2.92D-03 DXNew= 5.0454D-01 8.7688D-03
 Trust test= 1.01D+00 RLast= 2.92D-03 DXMaxT set to 3.00D-01
 The second derivative matrix:
                          R1        R2        R3        A1        A2
           R1           1.10379
           R2          -0.03072   0.39435
           R3          -0.03072   0.00697   0.39435
           A1           0.00000   0.00000   0.00000   0.00653
           A2           0.00000   0.00000   0.00000   0.00000   0.00653
           A3           0.00000   0.00000   0.00000   0.00000   0.00000
           A4           0.00000   0.00000   0.00000   0.00000   0.00000
                          A3        A4
           A3           0.00653
           A4           0.00000   0.00653
 ITU=  1  1  0
     Eigenvalues ---    0.00653   0.00653   0.00653   0.00653   0.38738
     Eigenvalues ---    0.39864   1.10647
 En-DIIS/RFO-DIIS IScMMF=        0 using points:     3    2
 RFO step:  Lambda= 0.00000000D+00.
 DidBck=F Rises=F RFO-DIIS coefs:    0.99210    0.00790
 Iteration  1 RMS(Cart)=  0.00003685 RMS(Int)=  0.00000001
 Iteration  2 RMS(Cart)=  0.00000001 RMS(Int)=  0.00000001
 ClnCor:  largest displacement from symmetrization is 1.10D-08 for atom     2.
 Variable       Old X    -DE/DX   Delta X   Delta X   Delta X     New X
                                 (Linear)    (Quad)   (Total)
    R1        2.27132  -0.00007  -0.00001  -0.00005  -0.00006   2.27126
    R2        2.01656  -0.00001   0.00001  -0.00005  -0.00003   2.01653
    R3        2.01656  -0.00001   0.00001  -0.00005  -0.00003   2.01653
    A1        3.14159   0.00000   0.00000   0.00000   0.00000   3.14159
    A2        3.14159   0.00000   0.00000   0.00000   0.00000   3.14159
    A3        3.14159   0.00000   0.00000   0.00000   0.00000   3.14159
    A4        3.14159   0.00000   0.00000   0.00000   0.00000   3.14159
         Item               Value     Threshold  Converged?
 Maximum Force            0.000066     0.000450     YES
 RMS     Force            0.000025     0.000300     YES
 Maximum Displacement     0.000055     0.001800     YES
 RMS     Displacement     0.000037     0.001200     YES
 Predicted change in Energy=-2.335039D-09
 Optimization completed.
    -- Stationary point found.
                           ----------------------------
                           !   Optimized Parameters   !
                           ! (Angstroms and Degrees)  !
 --------------------------                            --------------------------
 ! Name  Definition              Value          Derivative Info.                !
 --------------------------------------------------------------------------------
 ! R1    R(1,2)                  1.2019         -DE/DX =   -0.0001              !
 ! R2    R(1,3)                  1.0671         -DE/DX =    0.0                 !
 ! R3    R(2,4)                  1.0671         -DE/DX =    0.0                 !
 ! A1    L(2,1,3,-2,-1)        180.0            -DE/DX =    0.0                 !
 ! A2    L(1,2,4,-2,-1)        180.0            -DE/DX =    0.0                 !
 ! A3    L(2,1,3,-3,-2)        180.0            -DE/DX =    0.0                 !
 ! A4    L(1,2,4,-3,-2)        180.0            -DE/DX =    0.0                 !
 --------------------------------------------------------------------------------
 GradGradGradGradGradGradGradGradGradGradGradGradGradGradGradGradGradGrad

                          Input orientation:                          
 ---------------------------------------------------------------------
 Center     Atomic      Atomic             Coordinates (Angstroms)
 Number     Number       Type             X           Y           Z
 ---------------------------------------------------------------------
      1          6           0        0.810608    0.921880    2.256784
      2          6           0       -0.253149    0.802991    1.710044
      3          1           0        1.755050    1.027434    2.742198
      4          1           0       -1.197591    0.697437    1.224630
 ---------------------------------------------------------------------
                    Distance matrix (angstroms):
                    1          2          3          4
     1  C    0.000000
     2  C    1.201931   0.000000
     3  H    1.067117   2.269048   0.000000
     4  H    2.269048   1.067117   3.336166   0.000000
 Stoichiometry    C2H2
 Framework group  C*V[C*(HCCH)]
 Deg. of freedom     3
 Full point group                 C*V     NOp   4
 Largest Abelian subgroup         C2V     NOp   4
 Largest concise Abelian subgroup C1      NOp   1
                         Standard orientation:                         
 ---------------------------------------------------------------------
 Center     Atomic      Atomic             Coordinates (Angstroms)
 Number     Number       Type             X           Y           Z
 ---------------------------------------------------------------------
      1          6           0        0.000000    0.000000    0.600965
      2          6           0        0.000000    0.000000   -0.600965
      3          1           0        0.000000    0.000000    1.668083
      4          1           0        0.000000    0.000000   -1.668083
 ---------------------------------------------------------------------
 Rotational constants (GHZ):      0.0000000     35.3996772     35.3996772

 **********************************************************************

            Population analysis using the SCF density.

 **********************************************************************

 Orbital symmetries:
       Occupied  (SG) (SG) (SG) (SG) (SG) (PI) (PI)
       Virtual   (PI) (PI) (SG) (SG) (SG) (SG) (PI) (PI) (PI) (PI)
                 (SG) (SG) (SG) (SG) (SG) (PI) (PI) (DLTA) (DLTA)
                 (DLTA) (DLTA) (SG) (PI) (PI) (SG) (SG) (SG)
 The electronic state is 1-SG.
 Alpha  occ. eigenvalues --  -10.55017 -10.54745  -0.83726  -0.63850  -0.55424
 Alpha  occ. eigenvalues --   -0.34305  -0.34305
 Alpha virt. eigenvalues --    0.10044   0.10044   0.15706   0.20292   0.48106
 Alpha virt. eigenvalues --    0.51688   0.58856   0.58856   0.71891   0.71891
 Alpha virt. eigenvalues --    0.79151   0.87953   1.09050   1.30068   1.54817
 Alpha virt. eigenvalues --    1.56797   1.56797   1.59098   1.59099   1.98656
 Alpha virt. eigenvalues --    1.98657   2.48227   2.53406   2.53406   3.22126
 Alpha virt. eigenvalues --    4.17471   4.37809
          Condensed to atoms (all electrons):
               1          2          3          4
     1  C    4.867542   1.027287   0.353249  -0.025190
     2  C    1.027287   4.867542  -0.025190   0.353249
     3  H    0.353249  -0.025190   0.447226   0.001826
     4  H   -0.025190   0.353249   0.001826   0.447226
 Mulliken charges:
               1
     1  C   -0.222889
     2  C   -0.222889
     3  H    0.222889
     4  H    0.222889
 Sum of Mulliken charges =   0.00000
 Mulliken charges with hydrogens summed into heavy atoms:
               1
     1  C    0.000000
     2  C    0.000000
 Electronic spatial extent (au):  <R**2>=             59.8016
 Charge=              0.0000 electrons
 Dipole moment (field-independent basis, Debye):
    X=              0.0000    Y=              0.0000    Z=              0.0000  Tot=              0.0000
 Quadrupole moment (field-independent basis, Debye-Ang):
   XX=            -13.1188   YY=            -13.1188   ZZ=             -6.6511
   XY=              0.0000   XZ=              0.0000   YZ=              0.0000
 Traceless Quadrupole moment (field-independent basis, Debye-Ang):
   XX=             -2.1559   YY=             -2.1559   ZZ=              4.3118
   XY=              0.0000   XZ=              0.0000   YZ=              0.0000
 Octapole moment (field-independent basis, Debye-Ang**2):
  XXX=              0.0000  YYY=              0.0000  ZZZ=              0.0000  XYY=              0.0000
  XXY=              0.0000  XXZ=              0.0000  XZZ=              0.0000  YZZ=              0.0000
  YYZ=              0.0000  XYZ=              0.0000
 Hexadecapole moment (field-independent basis, Debye-Ang**3):
 XXXX=            -13.5231 YYYY=            -13.5231 ZZZZ=            -36.9513 XXXY=              0.0000
 XXXZ=              0.0000 YYYX=              0.0000 YYYZ=              0.0000 ZZZX=              0.0000
 ZZZY=              0.0000 XXYY=             -4.5077 XXZZ=            -11.6151 YYZZ=            -11.6151
 XXYZ=              0.0000 YYXZ=              0.0000 ZZXY=              0.0000
 N-N= 2.475774683371D+01 E-N=-2.285101686981D+02  KE= 7.659965788199D+01
 Symmetry A1   KE= 7.219992529452D+01
 Symmetry A2   KE= 6.067364563448D-34
 Symmetry B1   KE= 2.199866293736D+00
 Symmetry B2   KE= 2.199866293736D+00
 1\1\GINC-N0292\FOpt\RM062X\6-31G(d)\C2H2\TAIYUPAN\23-Feb-2017\0\\#n M0
 62X/6-31G(d) Opt\\CH_M062X/3-21G\\0,1\C,0.8106080446,0.9218801998,2.25
 6783549\C,-0.2531491794,0.802991102,1.7100444392\H,1.7550499855,1.0274
 342188,2.742198204\H,-1.197591101,0.6974370851,1.224629794\\Version=ES
 64L-G09RevE.01\State=1-SG\HF=-77.2877717\RMSD=6.864e-09\RMSF=2.281e-05
 \Dipole=0.0000003,0.,0.0000001\Quadrupole=2.1636863,-1.5558142,-0.6078
 721,0.4209622,1.9358924,0.2163619\PG=C*V [C*(H1C1C1H1)]\\@


 This summer one third of the nation will be ill-housed
 ill-nourished and ill-clad. Only they call it a vacation.
 -- Jonas Salk
 Job cpu time:       0 days  0 hours  0 minutes 28.4 seconds.
 File lengths (MBytes):  RWF=      5 Int=      0 D2E=      0 Chk=      1 Scr=      1
 Normal termination of Gaussian 09 at Thu Feb 23 18:19:49 2017.
