 Entering Gaussian System, Link 0=g09
 Input=HH_CCSD_6Gd.com
 Output=HH_CCSD_6Gd.log
 Initial command:
 /sw/contrib/gaussian/g09/E01/g09/l1.exe "/scr/Gau-3632.inp" -scrdir="/scr/"
 Entering Link 1 = /sw/contrib/gaussian/g09/E01/g09/l1.exe PID=      3633.
  
 Copyright (c) 1988,1990,1992,1993,1995,1998,2003,2009,2015,
            Gaussian, Inc.  All Rights Reserved.
  
 This is part of the Gaussian(R) 09 program.  It is based on
 the Gaussian(R) 03 system (copyright 2003, Gaussian, Inc.),
 the Gaussian(R) 98 system (copyright 1998, Gaussian, Inc.),
 the Gaussian(R) 94 system (copyright 1995, Gaussian, Inc.),
 the Gaussian 92(TM) system (copyright 1992, Gaussian, Inc.),
 the Gaussian 90(TM) system (copyright 1990, Gaussian, Inc.),
 the Gaussian 88(TM) system (copyright 1988, Gaussian, Inc.),
 the Gaussian 86(TM) system (copyright 1986, Carnegie Mellon
 University), and the Gaussian 82(TM) system (copyright 1983,
 Carnegie Mellon University). Gaussian is a federally registered
 trademark of Gaussian, Inc.
  
 This software contains proprietary and confidential information,
 including trade secrets, belonging to Gaussian, Inc.
  
 This software is provided under written license and may be
 used, copied, transmitted, or stored only in accord with that
 written license.
  
 The following legend is applicable only to US Government
 contracts under FAR:
  
                    RESTRICTED RIGHTS LEGEND
  
 Use, reproduction and disclosure by the US Government is
 subject to restrictions as set forth in subparagraphs (a)
 and (c) of the Commercial Computer Software - Restricted
 Rights clause in FAR 52.227-19.
  
 Gaussian, Inc.
 340 Quinnipiac St., Bldg. 40, Wallingford CT 06492
  
  
 ---------------------------------------------------------------
 Warning -- This program may not be used in any manner that
 competes with the business of Gaussian, Inc. or will provide
 assistance to any competitor of Gaussian, Inc.  The licensee
 of this program is prohibited from giving any competitor of
 Gaussian, Inc. access to this program.  By using this program,
 the user acknowledges that Gaussian, Inc. is engaged in the
 business of creating and licensing software in the field of
 computational chemistry and represents and warrants to the
 licensee that it is not a competitor of Gaussian, Inc. and that
 it will not use this program in any manner prohibited above.
 ---------------------------------------------------------------
  

 Cite this work as:
 Gaussian 09, Revision E.01,
 M. J. Frisch, G. W. Trucks, H. B. Schlegel, G. E. Scuseria, 
 M. A. Robb, J. R. Cheeseman, G. Scalmani, V. Barone, B. Mennucci, 
 G. A. Petersson, H. Nakatsuji, M. Caricato, X. Li, H. P. Hratchian, 
 A. F. Izmaylov, J. Bloino, G. Zheng, J. L. Sonnenberg, M. Hada, 
 M. Ehara, K. Toyota, R. Fukuda, J. Hasegawa, M. Ishida, T. Nakajima, 
 Y. Honda, O. Kitao, H. Nakai, T. Vreven, J. A. Montgomery, Jr., 
 J. E. Peralta, F. Ogliaro, M. Bearpark, J. J. Heyd, E. Brothers, 
 K. N. Kudin, V. N. Staroverov, T. Keith, R. Kobayashi, J. Normand, 
 K. Raghavachari, A. Rendell, J. C. Burant, S. S. Iyengar, J. Tomasi, 
 M. Cossi, N. Rega, J. M. Millam, M. Klene, J. E. Knox, J. B. Cross, 
 V. Bakken, C. Adamo, J. Jaramillo, R. Gomperts, R. E. Stratmann, 
 O. Yazyev, A. J. Austin, R. Cammi, C. Pomelli, J. W. Ochterski, 
 R. L. Martin, K. Morokuma, V. G. Zakrzewski, G. A. Voth, 
 P. Salvador, J. J. Dannenberg, S. Dapprich, A. D. Daniels, 
 O. Farkas, J. B. Foresman, J. V. Ortiz, J. Cioslowski, 
 and D. J. Fox, Gaussian, Inc., Wallingford CT, 2013.
 
 ******************************************
 Gaussian 09:  ES64L-G09RevE.01 30-Nov-2015
                24-Feb-2017 
 ******************************************
 %NProcShared=8
 Will use up to    8 processors via shared memory.
 --------------------
 #n CCSD/6-31G(d) Opt
 --------------------
 1/18=20,19=15,38=1/1,3;
 2/9=110,12=2,17=6,18=5,40=1/2;
 3/5=1,6=6,7=1,11=9,16=1,25=1,30=1,71=1/1,2,3;
 4//1;
 5/5=2,38=5/2;
 8/6=4,9=120000,10=2/1,4;
 9/5=7,15=1/13;
 11/28=-8,29=200,42=3/11;
 10/5=6/2;
 6/7=2,8=2,9=2,10=2/1;
 7/12=7/1,2,3,16;
 1/18=20,19=15/3(2);
 2/9=110/2;
 99//99;
 2/9=110/2;
 3/5=1,6=6,7=1,11=9,16=1,25=1,30=1,71=1/1,2,3;
 4/5=5,16=3,69=1/1;
 5/5=2,38=5/2;
 8/6=4,9=120000,10=2/1,4;
 9/5=7,15=1/13;
 11/28=-8,29=200,42=3/11;
 10/5=6/2;
 7/12=7/1,2,3,16;
 1/18=20,19=15/3(-9);
 2/9=110/2;
 6/7=2,8=2,9=2,10=2/1;
 99//99;
 -----
 Title
 -----
 Symbolic Z-matrix:
 Charge =  0 Multiplicity = 1
 H                    -0.10776  -1.95391   1.03402 
 H                    -0.62202  -2.68857   1.67104 
 
 Add virtual bond connecting atoms H2         and H1         Dist= 2.08D+00.

 GradGradGradGradGradGradGradGradGradGradGradGradGradGradGradGradGradGrad
 Berny optimization.
 Initialization pass.
                           ----------------------------
                           !    Initial Parameters    !
                           ! (Angstroms and Degrees)  !
 --------------------------                            --------------------------
 ! Name  Definition              Value          Derivative Info.                !
 --------------------------------------------------------------------------------
 ! R1    R(1,2)                  1.1            estimate D2E/DX2                !
 --------------------------------------------------------------------------------
 Trust Radius=3.00D-01 FncErr=1.00D-07 GrdErr=1.00D-07
 Number of steps in this run=     20 maximum allowed number of steps=    100.
 GradGradGradGradGradGradGradGradGradGradGradGradGradGradGradGradGradGrad

                          Input orientation:                          
 ---------------------------------------------------------------------
 Center     Atomic      Atomic             Coordinates (Angstroms)
 Number     Number       Type             X           Y           Z
 ---------------------------------------------------------------------
      1          1           0       -0.107760   -1.953910    1.034020
      2          1           0       -0.622020   -2.688570    1.671040
 ---------------------------------------------------------------------
 Stoichiometry    H2
 Framework group  D*H[C*(H.H)]
 Deg. of freedom     1
 Full point group                 D*H     NOp   8
 Largest Abelian subgroup         D2H     NOp   8
 Largest concise Abelian subgroup C2      NOp   2
                         Standard orientation:                         
 ---------------------------------------------------------------------
 Center     Atomic      Atomic             Coordinates (Angstroms)
 Number     Number       Type             X           Y           Z
 ---------------------------------------------------------------------
      1          1           0        0.000000    0.000000    0.549996
      2          1           0        0.000000    0.000000   -0.549996
 ---------------------------------------------------------------------
 Rotational constants (GHZ):      0.0000000    828.8629522    828.8629522
 Standard basis: 6-31G(d) (6D, 7F)
 There are     2 symmetry adapted cartesian basis functions of AG  symmetry.
 There are     0 symmetry adapted cartesian basis functions of B1G symmetry.
 There are     0 symmetry adapted cartesian basis functions of B2G symmetry.
 There are     0 symmetry adapted cartesian basis functions of B3G symmetry.
 There are     0 symmetry adapted cartesian basis functions of AU  symmetry.
 There are     2 symmetry adapted cartesian basis functions of B1U symmetry.
 There are     0 symmetry adapted cartesian basis functions of B2U symmetry.
 There are     0 symmetry adapted cartesian basis functions of B3U symmetry.
 There are     2 symmetry adapted basis functions of AG  symmetry.
 There are     0 symmetry adapted basis functions of B1G symmetry.
 There are     0 symmetry adapted basis functions of B2G symmetry.
 There are     0 symmetry adapted basis functions of B3G symmetry.
 There are     0 symmetry adapted basis functions of AU  symmetry.
 There are     2 symmetry adapted basis functions of B1U symmetry.
 There are     0 symmetry adapted basis functions of B2U symmetry.
 There are     0 symmetry adapted basis functions of B3U symmetry.
     4 basis functions,     8 primitive gaussians,     4 cartesian basis functions
     1 alpha electrons        1 beta electrons
       nuclear repulsion energy         0.4810735405 Hartrees.
 NAtoms=    2 NActive=    2 NUniq=    1 SFac= 4.00D+00 NAtFMM=   60 NAOKFM=F Big=F
 Integral buffers will be    131072 words long.
 Raffenetti 1 integral format.
 Two-electron integral symmetry is turned on.
 One-electron integrals computed using PRISM.
 NBasis=     4 RedAO= T EigKep=  2.36D-01  NBF=     2     0     0     0     0     2     0     0
 NBsUse=     4 1.00D-06 EigRej= -1.00D+00 NBFU=     2     0     0     0     0     2     0     0
 ExpMin= 1.61D-01 ExpMax= 1.87D+01 ExpMxC= 1.87D+01 IAcc=1 IRadAn=         1 AccDes= 0.00D+00
 Harris functional with IExCor=  205 and IRadAn=       1 diagonalized for initial guess.
 HarFok:  IExCor=  205 AccDes= 0.00D+00 IRadAn=         1 IDoV= 1 UseB2=F ITyADJ=14
 ICtDFT=  3500011 ScaDFX=  1.000000  1.000000  1.000000  1.000000
 FoFCou: FMM=F IPFlag=           0 FMFlag=      100000 FMFlg1=           0
         NFxFlg=           0 DoJE=T BraDBF=F KetDBF=T FulRan=T
         wScrn=  0.000000 ICntrl=     500 IOpCl=  0 I1Cent=   200000004 NGrid=           0
         NMat0=    1 NMatS0=      1 NMatT0=    0 NMatD0=    1 NMtDS0=    0 NMtDT0=    0
 Petite list used in FoFCou.
 Initial guess orbital symmetries:
       Occupied  (SGG)
       Virtual   (SGU) (SGG) (SGU)
 The electronic state of the initial guess is 1-SGG.
 Keep R1 ints in memory in symmetry-blocked form, NReq=821726.
 Requested convergence on RMS density matrix=1.00D-08 within 128 cycles.
 Requested convergence on MAX density matrix=1.00D-06.
 Requested convergence on             energy=1.00D-06.
 No special actions if energy rises.
 SCF Done:  E(RHF) =  -1.07568720044     A.U. after    4 cycles
            NFock=  4  Conv=0.68D-10     -V/T= 2.2341
 Range of M.O.s used for correlation:     1     4
 NBasis=     4 NAE=     1 NBE=     1 NFC=     0 NFV=     0
 NROrb=      4 NOA=     1 NOB=     1 NVA=     3 NVB=     3
 Semi-Direct transformation.
 ModeAB=           4 MOrb=             1 LenV=      33499459
 LASXX=           10 LTotXX=          10 LenRXX=          29
 LTotAB=          19 MaxLAS=          24 LenRXY=           0
 NonZer=          39 LenScr=      785920 LnRSAI=          24
 LnScr1=      785920 LExtra=           0 Total=      1571893
 MaxDsk=          -1 SrtSym=           T ITran=            4
 JobTyp=0 Pass  1:  I=   1 to   1.
 (rs|ai) integrals will be sorted in core.
 Spin components of T(2) and E(2):
     alpha-alpha T2 =       0.0000000000D+00 E2=      0.0000000000D+00
     alpha-beta  T2 =       0.1233117640D-01 E2=     -0.2180381305D-01
     beta-beta   T2 =       0.0000000000D+00 E2=      0.0000000000D+00
 ANorm=    0.1006146697D+01
 E2 =    -0.2180381305D-01 EUMP2 =    -0.10974910134899D+01
 Keep R2 and R3 ints in memory in symmetry-blocked form, NReq=801520.
 Iterations=  50 Convergence= 0.100D-07
 Iteration Nr.   1
 **********************
 DD1Dir will call FoFMem   1 times, MxPair=         2
 NAB=     1 NAA=     0 NBB=     0.
 MP4(R+Q)=  0.26886666D-03
 E3=       -0.80292002D-02        EUMP3=      -0.11055202137D+01
 E4(DQ)=   -0.31539557D-02        UMP4(DQ)=   -0.11086741695D+01
 E4(SDQ)=  -0.33529136D-02        UMP4(SDQ)=  -0.11088731273D+01
 DE(Corr)= -0.29558054E-01 E(Corr)=     -1.1052452540    
 NORM(A)=   0.10163929D+01
 Iteration Nr.   2
 **********************
 DD1Dir will call FoFMem   1 times, MxPair=         2
 NAB=     1 NAA=     0 NBB=     0.
 DE(Corr)= -0.34604269E-01 E(CORR)=     -1.1102914698     Delta=-5.05D-03
 NORM(A)=   0.10188188D+01
 Iteration Nr.   3
 **********************
 DD1Dir will call FoFMem   1 times, MxPair=         2
 NAB=     1 NAA=     0 NBB=     0.
 DE(Corr)= -0.35541170E-01 E(CORR)=     -1.1112283704     Delta=-9.37D-04
 NORM(A)=   0.10189655D+01
 Iteration Nr.   4
 **********************
 DD1Dir will call FoFMem   1 times, MxPair=         2
 NAB=     1 NAA=     0 NBB=     0.
 DE(Corr)= -0.35590772E-01 E(CORR)=     -1.1112779722     Delta=-4.96D-05
 NORM(A)=   0.10189416D+01
 Iteration Nr.   5
 **********************
 DD1Dir will call FoFMem   1 times, MxPair=         2
 NAB=     1 NAA=     0 NBB=     0.
 DE(Corr)= -0.35582076E-01 E(CORR)=     -1.1112692763     Delta= 8.70D-06
 NORM(A)=   0.10189472D+01
 Iteration Nr.   6
 **********************
 DD1Dir will call FoFMem   1 times, MxPair=         2
 NAB=     1 NAA=     0 NBB=     0.
 DE(Corr)= -0.35584001E-01 E(CORR)=     -1.1112712017     Delta=-1.93D-06
 NORM(A)=   0.10189477D+01
 Iteration Nr.   7
 **********************
 DD1Dir will call FoFMem   1 times, MxPair=         2
 NAB=     1 NAA=     0 NBB=     0.
 DE(Corr)= -0.35584185E-01 E(CORR)=     -1.1112713855     Delta=-1.84D-07
 NORM(A)=   0.10189468D+01
 Iteration Nr.   8
 **********************
 DD1Dir will call FoFMem   1 times, MxPair=         2
 NAB=     1 NAA=     0 NBB=     0.
 DE(Corr)= -0.35583879E-01 E(CORR)=     -1.1112710794     Delta= 3.06D-07
 NORM(A)=   0.10189468D+01
 Iteration Nr.   9
 **********************
 DD1Dir will call FoFMem   1 times, MxPair=         2
 NAB=     1 NAA=     0 NBB=     0.
 DE(Corr)= -0.35583883E-01 E(CORR)=     -1.1112710833     Delta=-3.91D-09
 NORM(A)=   0.10189468D+01
 Dominant configurations:
 ***********************
 Spin Case        I    J    A    B          Value
   ABAB           1    1    2    2      -0.166612D+00
 Largest amplitude= 1.67D-01

 Z-AMPLITUDE ITERATIONS

 Iteration Nr.   1
 **********************
 DD1Dir will call FoFMem   1 times, MxPair=         2
 NAB=     1 NAA=     0 NBB=     0.
 DE(Z)  -0.34742238D-01          E(Z)=    -0.11104294384D+01
 NORM(A)=   0.10189452D+01
 Iteration Nr.   2
 **********************
 DD1Dir will call FoFMem   1 times, MxPair=         2
 NAB=     1 NAA=     0 NBB=     0.
 DE(Z)  -0.34741677D-01          E(Z)=    -0.11104288774D+01
 NORM(A)=   0.10189451D+01
 Iteration Nr.   3
 **********************
 DD1Dir will call FoFMem   1 times, MxPair=         2
 NAB=     1 NAA=     0 NBB=     0.
 DE(Z)  -0.34741650D-01          E(Z)=    -0.11104288505D+01
 NORM(A)=   0.10189492D+01
 Iteration Nr.   4
 **********************
 DD1Dir will call FoFMem   1 times, MxPair=         2
 NAB=     1 NAA=     0 NBB=     0.
 DE(Z)  -0.34743076D-01          E(Z)=    -0.11104302763D+01
 NORM(A)=   0.10189399D+01
 Iteration Nr.   5
 **********************
 DD1Dir will call FoFMem   1 times, MxPair=         2
 NAB=     1 NAA=     0 NBB=     0.
 DE(Z)  -0.34739835D-01          E(Z)=    -0.11104270355D+01
 NORM(A)=   0.10175658D+01
 Iteration Nr.   6
 **********************
 DD1Dir will call FoFMem   1 times, MxPair=         2
 NAB=     1 NAA=     0 NBB=     0.
 DE(Z)  -0.34252802D-01          E(Z)=    -0.11099400025D+01
 NORM(A)=   0.10175658D+01
 Iteration Nr.   7
 **********************
 DD1Dir will call FoFMem   1 times, MxPair=         2
 NAB=     1 NAA=     0 NBB=     0.
 DE(Z)  -0.34252795D-01          E(Z)=    -0.11099399954D+01
 NORM(A)=   0.10175658D+01
 Discarding MO integrals.
          IDoAtm=11
          Differentiating once with respect to electric field.
                with respect to dipole field.
          Differentiating once with respect to nuclear coordinates.
 Keep R1 ints in memory in symmetry-blocked form, NReq=802400.
          There are     1 degrees of freedom in the 1st order CPHF.  IDoFFX=0 NUNeed=     1.
 LinEq1:  Iter=  0 NonCon=     1 RMS=2.96D-02 Max=5.13D-02 NDo=     1
 AX will form     1 AO Fock derivatives at one time.
 LinEq1:  Iter=  1 NonCon=     0 RMS=5.07D-18 Max=7.87D-18 NDo=     1
 Linear equations converged to 1.000D-10 1.000D-09 after     1 iterations.
 End of Minotr F.D. properties file   721 does not exist.
 End of Minotr F.D. properties file   722 does not exist.
 End of Minotr F.D. properties file   788 does not exist.

 **********************************************************************

            Population analysis using the SCF density.

 **********************************************************************

 Orbital symmetries:
       Occupied  (SGG)
       Virtual   (SGU) (SGG) (SGU)
 The electronic state is 1-SGG.
 Alpha  occ. eigenvalues --   -0.50592
 Alpha virt. eigenvalues --    0.14151   0.95034   1.10869
          Condensed to atoms (all electrons):
               1          2
     1  H    0.652006   0.347994
     2  H    0.347994   0.652006
 Mulliken charges:
               1
     1  H    0.000000
     2  H    0.000000
 Sum of Mulliken charges =   0.00000
 Mulliken charges with hydrogens summed into heavy atoms:
               1
 Electronic spatial extent (au):  <R**2>=              7.1708
 Charge=              0.0000 electrons
 Dipole moment (field-independent basis, Debye):
    X=              0.0000    Y=              0.0000    Z=              0.0000  Tot=              0.0000
 Quadrupole moment (field-independent basis, Debye-Ang):
   XX=             -2.5256   YY=             -2.5256   ZZ=             -1.6878
   XY=              0.0000   XZ=              0.0000   YZ=              0.0000
 Traceless Quadrupole moment (field-independent basis, Debye-Ang):
   XX=             -0.2792   YY=             -0.2792   ZZ=              0.5585
   XY=              0.0000   XZ=              0.0000   YZ=              0.0000
 Octapole moment (field-independent basis, Debye-Ang**2):
  XXX=              0.0000  YYY=              0.0000  ZZZ=              0.0000  XYY=              0.0000
  XXY=              0.0000  XXZ=              0.0000  XZZ=              0.0000  YZZ=              0.0000
  YYZ=              0.0000  XYZ=              0.0000
 Hexadecapole moment (field-independent basis, Debye-Ang**3):
 XXXX=             -2.6537 YYYY=             -2.6537 ZZZZ=             -5.3274 XXXY=              0.0000
 XXXZ=              0.0000 YYYX=              0.0000 YYYZ=              0.0000 ZZZX=              0.0000
 ZZZY=              0.0000 XXYY=             -0.8846 XXZZ=             -1.3773 YYZZ=             -1.3773
 XXYZ=              0.0000 YYXZ=              0.0000 ZZXY=              0.0000
 N-N= 4.810735405348D-01 E-N=-2.973324053848D+00  KE= 8.716422023796D-01
 Symmetry AG   KE= 8.716422023796D-01
 Symmetry B1G  KE= 0.000000000000D+00
 Symmetry B2G  KE= 0.000000000000D+00
 Symmetry B3G  KE= 0.000000000000D+00
 Symmetry AU   KE= 0.000000000000D+00
 Symmetry B1U  KE= 0.000000000000D+00
 Symmetry B2U  KE= 0.000000000000D+00
 Symmetry B3U  KE= 0.000000000000D+00
 Calling FoFJK, ICntrl=  10002127 FMM=F ISym2X=1 I1Cent= 0 IOpClX= 0 NMat=1 NMatS=1 NMatT=0.
 ***** Axes restored to original set *****
 -------------------------------------------------------------------
 Center     Atomic                   Forces (Hartrees/Bohr)
 Number     Number              X              Y              Z
 -------------------------------------------------------------------
      1        1          -0.039030338   -0.055757842    0.048347345
      2        1           0.039030338    0.055757842   -0.048347345
 -------------------------------------------------------------------
 Cartesian Forces:  Max     0.055757842 RMS     0.048200173

 GradGradGradGradGradGradGradGradGradGradGradGradGradGradGradGradGradGrad
 Berny optimization.
 FormGI is forming the generalized inverse of G from B-inverse, IUseBI=4.
 Internal  Forces:  Max     0.083485149 RMS     0.083485149
 Search for a local minimum.
 Step number   1 out of a maximum of   20
 All quantities printed in internal units (Hartrees-Bohrs-Radians)
 Mixed Optimization -- RFO/linear search
 Second derivative matrix not updated -- first step.
 The second derivative matrix:
                          R1
           R1           0.13838
 ITU=  0
     Eigenvalues ---    0.13838
 RFO step:  Lambda=-3.92395195D-02 EMin= 1.38381667D-01
 Linear search not attempted -- first point.
 Maximum step size (   0.300) exceeded in Quadratic search.
    -- Step size scaled by   0.638
 Iteration  1 RMS(Cart)=  0.14142136 RMS(Int)=  0.10000000
 Iteration  2 RMS(Cart)=  0.07071068 RMS(Int)=  0.00000000
 Iteration  3 RMS(Cart)=  0.00000000 RMS(Int)=  0.00000000
 ClnCor:  largest displacement from symmetrization is 8.88D-16 for atom     2.
 Variable       Old X    -DE/DX   Delta X   Delta X   Delta X     New X
                                 (Linear)    (Quad)   (Total)
    R1        2.07868  -0.08349   0.00000  -0.30000  -0.30000   1.77868
         Item               Value     Threshold  Converged?
 Maximum Force            0.083485     0.000450     NO 
 RMS     Force            0.083485     0.000300     NO 
 Maximum Displacement     0.100182     0.001800     NO 
 RMS     Displacement     0.212132     0.001200     NO 
 Predicted change in Energy=-1.881837D-02
 GradGradGradGradGradGradGradGradGradGradGradGradGradGradGradGradGradGrad

                          Input orientation:                          
 ---------------------------------------------------------------------
 Center     Atomic      Atomic             Coordinates (Angstroms)
 Number     Number       Type             X           Y           Z
 ---------------------------------------------------------------------
      1          1           0       -0.144870   -2.006924    1.079988
      2          1           0       -0.584910   -2.635556    1.625072
 ---------------------------------------------------------------------
 Stoichiometry    H2
 Framework group  D*H[C*(H.H)]
 Deg. of freedom     1
 Full point group                 D*H     NOp   8
 Largest Abelian subgroup         D2H     NOp   8
 Largest concise Abelian subgroup C2      NOp   2
                         Standard orientation:                         
 ---------------------------------------------------------------------
 Center     Atomic      Atomic             Coordinates (Angstroms)
 Number     Number       Type             X           Y           Z
 ---------------------------------------------------------------------
      1          1           0        0.000000    0.000000    0.470620
      2          1           0        0.000000    0.000000   -0.470620
 ---------------------------------------------------------------------
 Rotational constants (GHZ):      0.0000000   1132.0407467   1132.0407467
 Standard basis: 6-31G(d) (6D, 7F)
 There are     2 symmetry adapted cartesian basis functions of AG  symmetry.
 There are     0 symmetry adapted cartesian basis functions of B1G symmetry.
 There are     0 symmetry adapted cartesian basis functions of B2G symmetry.
 There are     0 symmetry adapted cartesian basis functions of B3G symmetry.
 There are     0 symmetry adapted cartesian basis functions of AU  symmetry.
 There are     2 symmetry adapted cartesian basis functions of B1U symmetry.
 There are     0 symmetry adapted cartesian basis functions of B2U symmetry.
 There are     0 symmetry adapted cartesian basis functions of B3U symmetry.
 There are     2 symmetry adapted basis functions of AG  symmetry.
 There are     0 symmetry adapted basis functions of B1G symmetry.
 There are     0 symmetry adapted basis functions of B2G symmetry.
 There are     0 symmetry adapted basis functions of B3G symmetry.
 There are     0 symmetry adapted basis functions of AU  symmetry.
 There are     2 symmetry adapted basis functions of B1U symmetry.
 There are     0 symmetry adapted basis functions of B2U symmetry.
 There are     0 symmetry adapted basis functions of B3U symmetry.
     4 basis functions,     8 primitive gaussians,     4 cartesian basis functions
     1 alpha electrons        1 beta electrons
       nuclear repulsion energy         0.5622133273 Hartrees.
 NAtoms=    2 NActive=    2 NUniq=    1 SFac= 4.00D+00 NAtFMM=   60 NAOKFM=F Big=F
 Integral buffers will be    131072 words long.
 Raffenetti 1 integral format.
 Two-electron integral symmetry is turned on.
 One-electron integrals computed using PRISM.
 NBasis=     4 RedAO= T EigKep=  1.94D-01  NBF=     2     0     0     0     0     2     0     0
 NBsUse=     4 1.00D-06 EigRej= -1.00D+00 NBFU=     2     0     0     0     0     2     0     0
 Initial guess from the checkpoint file:  "/scr/Gau-3633.chk"
 B after Tr=     0.000000    0.000000    0.000000
         Rot=    1.000000    0.000000    0.000000    0.000000 Ang=   0.00 deg.
 Initial guess orbital symmetries:
       Occupied  (SGG)
       Virtual   (SGG) (SGU) (SGU)
 ExpMin= 1.61D-01 ExpMax= 1.87D+01 ExpMxC= 1.87D+01 IAcc=1 IRadAn=         1 AccDes= 0.00D+00
 Harris functional with IExCor=  205 and IRadAn=       1 diagonalized for initial guess.
 HarFok:  IExCor=  205 AccDes= 0.00D+00 IRadAn=         1 IDoV= 1 UseB2=F ITyADJ=14
 ICtDFT=  3500011 ScaDFX=  1.000000  1.000000  1.000000  1.000000
 FoFCou: FMM=F IPFlag=           0 FMFlag=      100000 FMFlg1=           0
         NFxFlg=           0 DoJE=T BraDBF=F KetDBF=T FulRan=T
         wScrn=  0.000000 ICntrl=     500 IOpCl=  0 I1Cent=   200000004 NGrid=           0
         NMat0=    1 NMatS0=      1 NMatT0=    0 NMatD0=    1 NMtDS0=    0 NMtDT0=    0
 Petite list used in FoFCou.
 Keep R1 ints in memory in symmetry-blocked form, NReq=821726.
 Requested convergence on RMS density matrix=1.00D-08 within 128 cycles.
 Requested convergence on MAX density matrix=1.00D-06.
 Requested convergence on             energy=1.00D-06.
 No special actions if energy rises.
 SCF Done:  E(RHF) =  -1.10512985403     A.U. after    5 cycles
            NFock=  5  Conv=0.24D-12     -V/T= 2.1503
 Range of M.O.s used for correlation:     1     4
 NBasis=     4 NAE=     1 NBE=     1 NFC=     0 NFV=     0
 NROrb=      4 NOA=     1 NOB=     1 NVA=     3 NVB=     3
 Semi-Direct transformation.
 ModeAB=           4 MOrb=             1 LenV=      33499459
 LASXX=           10 LTotXX=          10 LenRXX=          29
 LTotAB=          19 MaxLAS=          24 LenRXY=           0
 NonZer=          39 LenScr=      785920 LnRSAI=          24
 LnScr1=      785920 LExtra=           0 Total=      1571893
 MaxDsk=          -1 SrtSym=           T ITran=            4
 JobTyp=0 Pass  1:  I=   1 to   1.
 (rs|ai) integrals will be sorted in core.
 Spin components of T(2) and E(2):
     alpha-alpha T2 =       0.0000000000D+00 E2=      0.0000000000D+00
     alpha-beta  T2 =       0.9331448969D-02 E2=     -0.1966054590D-01
     beta-beta   T2 =       0.0000000000D+00 E2=      0.0000000000D+00
 ANorm=    0.1004654890D+01
 E2 =    -0.1966054590D-01 EUMP2 =    -0.11247903999298D+01
 Keep R2 and R3 ints in memory in symmetry-blocked form, NReq=801520.
 Iterations=  50 Convergence= 0.100D-07
 Iteration Nr.   1
 **********************
 DD1Dir will call FoFMem   1 times, MxPair=         2
 NAB=     1 NAA=     0 NBB=     0.
 MP4(R+Q)=  0.18346138D-03
 E3=       -0.65847078D-02        EUMP3=      -0.11313751077D+01
 E4(DQ)=   -0.23088213D-02        UMP4(DQ)=   -0.11336839291D+01
 E4(SDQ)=  -0.24125630D-02        UMP4(SDQ)=  -0.11337876708D+01
 DE(Corr)= -0.26058206E-01 E(Corr)=     -1.1311880599    
 NORM(A)=   0.10110719D+01
 Iteration Nr.   2
 **********************
 DD1Dir will call FoFMem   1 times, MxPair=         2
 NAB=     1 NAA=     0 NBB=     0.
 DE(Corr)= -0.29574914E-01 E(CORR)=     -1.1347047679     Delta=-3.52D-03
 NORM(A)=   0.10122268D+01
 Iteration Nr.   3
 **********************
 DD1Dir will call FoFMem   1 times, MxPair=         2
 NAB=     1 NAA=     0 NBB=     0.
 DE(Corr)= -0.30084468E-01 E(CORR)=     -1.1352143223     Delta=-5.10D-04
 NORM(A)=   0.10123177D+01
 Iteration Nr.   4
 **********************
 DD1Dir will call FoFMem   1 times, MxPair=         2
 NAB=     1 NAA=     0 NBB=     0.
 DE(Corr)= -0.30119331E-01 E(CORR)=     -1.1352491849     Delta=-3.49D-05
 NORM(A)=   0.10123029D+01
 Iteration Nr.   5
 **********************
 DD1Dir will call FoFMem   1 times, MxPair=         2
 NAB=     1 NAA=     0 NBB=     0.
 DE(Corr)= -0.30112968E-01 E(CORR)=     -1.1352428222     Delta= 6.36D-06
 NORM(A)=   0.10123058D+01
 Iteration Nr.   6
 **********************
 DD1Dir will call FoFMem   1 times, MxPair=         2
 NAB=     1 NAA=     0 NBB=     0.
 DE(Corr)= -0.30114140E-01 E(CORR)=     -1.1352439941     Delta=-1.17D-06
 NORM(A)=   0.10123054D+01
 Iteration Nr.   7
 **********************
 DD1Dir will call FoFMem   1 times, MxPair=         2
 NAB=     1 NAA=     0 NBB=     0.
 DE(Corr)= -0.30113989E-01 E(CORR)=     -1.1352438426     Delta= 1.51D-07
 NORM(A)=   0.10123055D+01
 Iteration Nr.   8
 **********************
 DD1Dir will call FoFMem   1 times, MxPair=         2
 NAB=     1 NAA=     0 NBB=     0.
 DE(Corr)= -0.30114026E-01 E(CORR)=     -1.1352438798     Delta=-3.72D-08
 NORM(A)=   0.10123055D+01
 Iteration Nr.   9
 **********************
 DD1Dir will call FoFMem   1 times, MxPair=         2
 NAB=     1 NAA=     0 NBB=     0.
 DE(Corr)= -0.30114026E-01 E(CORR)=     -1.1352438803     Delta=-5.16D-10
 NORM(A)=   0.10123055D+01
 Dominant configurations:
 ***********************
 Spin Case        I    J    A    B          Value
   ABAB           1    1    2    2      -0.122351D+00
 Largest amplitude= 1.22D-01

 Z-AMPLITUDE ITERATIONS

 Iteration Nr.   1
 **********************
 DD1Dir will call FoFMem   1 times, MxPair=         2
 NAB=     1 NAA=     0 NBB=     0.
 DE(Z)  -0.29625114D-01          E(Z)=    -0.11347549679D+01
 NORM(A)=   0.10123053D+01
 Iteration Nr.   2
 **********************
 DD1Dir will call FoFMem   1 times, MxPair=         2
 NAB=     1 NAA=     0 NBB=     0.
 DE(Z)  -0.29625025D-01          E(Z)=    -0.11347548792D+01
 NORM(A)=   0.10123061D+01
 Iteration Nr.   3
 **********************
 DD1Dir will call FoFMem   1 times, MxPair=         2
 NAB=     1 NAA=     0 NBB=     0.
 DE(Z)  -0.29625372D-01          E(Z)=    -0.11347552257D+01
 NORM(A)=   0.10123054D+01
 Iteration Nr.   4
 **********************
 DD1Dir will call FoFMem   1 times, MxPair=         2
 NAB=     1 NAA=     0 NBB=     0.
 DE(Z)  -0.29625082D-01          E(Z)=    -0.11347549360D+01
 NORM(A)=   0.10123055D+01
 Iteration Nr.   5
 **********************
 DD1Dir will call FoFMem   1 times, MxPair=         2
 NAB=     1 NAA=     0 NBB=     0.
 DE(Z)  -0.29625118D-01          E(Z)=    -0.11347549724D+01
 NORM(A)=   0.10117069D+01
 Iteration Nr.   6
 **********************
 DD1Dir will call FoFMem   1 times, MxPair=         2
 NAB=     1 NAA=     0 NBB=     0.
 DE(Z)  -0.29375407D-01          E(Z)=    -0.11345052612D+01
 NORM(A)=   0.10117069D+01
 Iteration Nr.   7
 **********************
 DD1Dir will call FoFMem   1 times, MxPair=         2
 NAB=     1 NAA=     0 NBB=     0.
 DE(Z)  -0.29375377D-01          E(Z)=    -0.11345052306D+01
 NORM(A)=   0.10117069D+01
 Iteration Nr.   8
 **********************
 DD1Dir will call FoFMem   1 times, MxPair=         2
 NAB=     1 NAA=     0 NBB=     0.
 DE(Z)  -0.29375377D-01          E(Z)=    -0.11345052312D+01
 NORM(A)=   0.10117069D+01
 Discarding MO integrals.
          IDoAtm=11
          Differentiating once with respect to electric field.
                with respect to dipole field.
          Differentiating once with respect to nuclear coordinates.
 Keep R1 ints in memory in symmetry-blocked form, NReq=802419.
          There are     1 degrees of freedom in the 1st order CPHF.  IDoFFX=0 NUNeed=     1.
 LinEq1:  Iter=  0 NonCon=     1 RMS=2.10D-02 Max=3.64D-02 NDo=     1
 AX will form     1 AO Fock derivatives at one time.
 LinEq1:  Iter=  1 NonCon=     0 RMS=1.42D-18 Max=1.80D-18 NDo=     1
 Linear equations converged to 1.000D-10 1.000D-09 after     1 iterations.
 End of Minotr F.D. properties file   721 does not exist.
 End of Minotr F.D. properties file   722 does not exist.
 End of Minotr F.D. properties file   788 does not exist.
 Calling FoFJK, ICntrl=  10002127 FMM=F ISym2X=1 I1Cent= 0 IOpClX= 0 NMat=1 NMatS=1 NMatT=0.
 ***** Axes restored to original set *****
 -------------------------------------------------------------------
 Center     Atomic                   Forces (Hartrees/Bohr)
 Number     Number              X              Y              Z
 -------------------------------------------------------------------
      1        1          -0.033855484   -0.048365165    0.041937192
      2        1           0.033855484    0.048365165   -0.041937192
 -------------------------------------------------------------------
 Cartesian Forces:  Max     0.048365165 RMS     0.041809533

 GradGradGradGradGradGradGradGradGradGradGradGradGradGradGradGradGradGrad
 Berny optimization.
 Using GEDIIS/GDIIS optimizer.
 Internal  Forces:  Max     0.072416235 RMS     0.072416235
 Search for a local minimum.
 Step number   2 out of a maximum of   20
 All quantities printed in internal units (Hartrees-Bohrs-Radians)
 Mixed Optimization -- RFO/linear search
 Update second derivatives using D2CorX and points    1    2
 DE= -2.40D-02 DEPred=-1.88D-02 R= 1.27D+00
 TightC=F SS=  1.41D+00  RLast= 3.00D-01 DXNew= 5.0454D-01 9.0000D-01
 Trust test= 1.27D+00 RLast= 3.00D-01 DXMaxT set to 5.05D-01
 The second derivative matrix:
                          R1
           R1           0.03690
 ITU=  1  0
 Use linear search instead of GDIIS.
     Eigenvalues ---    0.03690
 RFO step:  Lambda= 0.00000000D+00 EMin= 3.68963790D-02
 Quartic linear search produced a step of  1.27806.
 Iteration  1 RMS(Cart)=  0.14142136 RMS(Int)=  0.18341717
 Iteration  2 RMS(Cart)=  0.12969552 RMS(Int)=  0.00000000
 Iteration  3 RMS(Cart)=  0.00000000 RMS(Int)=  0.00000000
 ClnCor:  largest displacement from symmetrization is 9.93D-16 for atom     2.
 Variable       Old X    -DE/DX   Delta X   Delta X   Delta X     New X
                                 (Linear)    (Quad)   (Total)
    R1        1.77868  -0.07242  -0.38342   0.00000  -0.38342   1.39527
         Item               Value     Threshold  Converged?
 Maximum Force            0.072416     0.000450     NO 
 RMS     Force            0.072416     0.000300     NO 
 Maximum Displacement     0.128038     0.001800     NO 
 RMS     Displacement     0.271117     0.001200     NO 
 Predicted change in Energy=-2.505358D-02
 GradGradGradGradGradGradGradGradGradGradGradGradGradGradGradGradGradGrad

                          Input orientation:                          
 ---------------------------------------------------------------------
 Center     Atomic      Atomic             Coordinates (Angstroms)
 Number     Number       Type             X           Y           Z
 ---------------------------------------------------------------------
      1          1           0       -0.192298   -2.074679    1.138738
      2          1           0       -0.537482   -2.567801    1.566322
 ---------------------------------------------------------------------
 Stoichiometry    H2
 Framework group  D*H[C*(H.H)]
 Deg. of freedom     1
 Full point group                 D*H     NOp   8
 Largest Abelian subgroup         D2H     NOp   8
 Largest concise Abelian subgroup C2      NOp   2
                         Standard orientation:                         
 ---------------------------------------------------------------------
 Center     Atomic      Atomic             Coordinates (Angstroms)
 Number     Number       Type             X           Y           Z
 ---------------------------------------------------------------------
      1          1           0        0.000000    0.000000    0.369172
      2          1           0        0.000000    0.000000   -0.369172
 ---------------------------------------------------------------------
 Rotational constants (GHZ):      0.0000000   1839.6918300   1839.6918300
 Standard basis: 6-31G(d) (6D, 7F)
 There are     2 symmetry adapted cartesian basis functions of AG  symmetry.
 There are     0 symmetry adapted cartesian basis functions of B1G symmetry.
 There are     0 symmetry adapted cartesian basis functions of B2G symmetry.
 There are     0 symmetry adapted cartesian basis functions of B3G symmetry.
 There are     0 symmetry adapted cartesian basis functions of AU  symmetry.
 There are     2 symmetry adapted cartesian basis functions of B1U symmetry.
 There are     0 symmetry adapted cartesian basis functions of B2U symmetry.
 There are     0 symmetry adapted cartesian basis functions of B3U symmetry.
 There are     2 symmetry adapted basis functions of AG  symmetry.
 There are     0 symmetry adapted basis functions of B1G symmetry.
 There are     0 symmetry adapted basis functions of B2G symmetry.
 There are     0 symmetry adapted basis functions of B3G symmetry.
 There are     0 symmetry adapted basis functions of AU  symmetry.
 There are     2 symmetry adapted basis functions of B1U symmetry.
 There are     0 symmetry adapted basis functions of B2U symmetry.
 There are     0 symmetry adapted basis functions of B3U symmetry.
     4 basis functions,     8 primitive gaussians,     4 cartesian basis functions
     1 alpha electrons        1 beta electrons
       nuclear repulsion energy         0.7167086510 Hartrees.
 NAtoms=    2 NActive=    2 NUniq=    1 SFac= 4.00D+00 NAtFMM=   60 NAOKFM=F Big=F
 Integral buffers will be    131072 words long.
 Raffenetti 1 integral format.
 Two-electron integral symmetry is turned on.
 One-electron integrals computed using PRISM.
 NBasis=     4 RedAO= T EigKep=  1.36D-01  NBF=     2     0     0     0     0     2     0     0
 NBsUse=     4 1.00D-06 EigRej= -1.00D+00 NBFU=     2     0     0     0     0     2     0     0
 Initial guess from the checkpoint file:  "/scr/Gau-3633.chk"
 B after Tr=     0.000000    0.000000    0.000000
         Rot=    1.000000    0.000000    0.000000    0.000000 Ang=   0.00 deg.
 Initial guess orbital symmetries:
       Occupied  (SGG)
       Virtual   (SGG) (SGU) (SGU)
 ExpMin= 1.61D-01 ExpMax= 1.87D+01 ExpMxC= 1.87D+01 IAcc=1 IRadAn=         1 AccDes= 0.00D+00
 Harris functional with IExCor=  205 and IRadAn=       1 diagonalized for initial guess.
 HarFok:  IExCor=  205 AccDes= 0.00D+00 IRadAn=         1 IDoV= 1 UseB2=F ITyADJ=14
 ICtDFT=  3500011 ScaDFX=  1.000000  1.000000  1.000000  1.000000
 FoFCou: FMM=F IPFlag=           0 FMFlag=      100000 FMFlg1=           0
         NFxFlg=           0 DoJE=T BraDBF=F KetDBF=T FulRan=T
         wScrn=  0.000000 ICntrl=     500 IOpCl=  0 I1Cent=   200000004 NGrid=           0
         NMat0=    1 NMatS0=      1 NMatT0=    0 NMatD0=    1 NMtDS0=    0 NMtDT0=    0
 Petite list used in FoFCou.
 Keep R1 ints in memory in symmetry-blocked form, NReq=821740.
 Requested convergence on RMS density matrix=1.00D-08 within 128 cycles.
 Requested convergence on MAX density matrix=1.00D-06.
 Requested convergence on             energy=1.00D-06.
 No special actions if energy rises.
 SCF Done:  E(RHF) =  -1.12677708605     A.U. after    5 cycles
            NFock=  5  Conv=0.14D-10     -V/T= 1.9999
 Range of M.O.s used for correlation:     1     4
 NBasis=     4 NAE=     1 NBE=     1 NFC=     0 NFV=     0
 NROrb=      4 NOA=     1 NOB=     1 NVA=     3 NVB=     3
 Semi-Direct transformation.
 ModeAB=           4 MOrb=             1 LenV=      33499445
 LASXX=           10 LTotXX=          10 LenRXX=          29
 LTotAB=          19 MaxLAS=          24 LenRXY=           0
 NonZer=          39 LenScr=      785920 LnRSAI=          24
 LnScr1=      785920 LExtra=           0 Total=      1571893
 MaxDsk=          -1 SrtSym=           T ITran=            4
 JobTyp=0 Pass  1:  I=   1 to   1.
 (rs|ai) integrals will be sorted in core.
 Spin components of T(2) and E(2):
     alpha-alpha T2 =       0.0000000000D+00 E2=      0.0000000000D+00
     alpha-beta  T2 =       0.6624498928D-02 E2=     -0.1736328985D-01
     beta-beta   T2 =       0.0000000000D+00 E2=      0.0000000000D+00
 ANorm=    0.1003306782D+01
 E2 =    -0.1736328985D-01 EUMP2 =    -0.11441403759003D+01
 Keep R2 and R3 ints in memory in symmetry-blocked form, NReq=801520.
 Iterations=  50 Convergence= 0.100D-07
 Iteration Nr.   1
 **********************
 DD1Dir will call FoFMem   1 times, MxPair=         2
 NAB=     1 NAA=     0 NBB=     0.
 MP4(R+Q)=  0.11502310D-03
 E3=       -0.51943081D-02        EUMP3=      -0.11493346840D+01
 E4(DQ)=   -0.15699606D-02        UMP4(DQ)=   -0.11509046446D+01
 E4(SDQ)=  -0.15971386D-02        UMP4(SDQ)=  -0.11509318226D+01
 DE(Corr)= -0.22441489E-01 E(Corr)=     -1.1492185754    
 NORM(A)=   0.10068937D+01
 Iteration Nr.   2
 **********************
 DD1Dir will call FoFMem   1 times, MxPair=         2
 NAB=     1 NAA=     0 NBB=     0.
 DE(Corr)= -0.24691260E-01 E(CORR)=     -1.1514683461     Delta=-2.25D-03
 NORM(A)=   0.10072260D+01
 Iteration Nr.   3
 **********************
 DD1Dir will call FoFMem   1 times, MxPair=         2
 NAB=     1 NAA=     0 NBB=     0.
 DE(Corr)= -0.24865744E-01 E(CORR)=     -1.1516428302     Delta=-1.74D-04
 NORM(A)=   0.10072641D+01
 Iteration Nr.   4
 **********************
 DD1Dir will call FoFMem   1 times, MxPair=         2
 NAB=     1 NAA=     0 NBB=     0.
 DE(Corr)= -0.24883191E-01 E(CORR)=     -1.1516602767     Delta=-1.74D-05
 NORM(A)=   0.10072571D+01
 Iteration Nr.   5
 **********************
 DD1Dir will call FoFMem   1 times, MxPair=         2
 NAB=     1 NAA=     0 NBB=     0.
 DE(Corr)= -0.24879638E-01 E(CORR)=     -1.1516567242     Delta= 3.55D-06
 NORM(A)=   0.10072579D+01
 Iteration Nr.   6
 **********************
 DD1Dir will call FoFMem   1 times, MxPair=         2
 NAB=     1 NAA=     0 NBB=     0.
 DE(Corr)= -0.24880062E-01 E(CORR)=     -1.1516571476     Delta=-4.23D-07
 NORM(A)=   0.10072577D+01
 Iteration Nr.   7
 **********************
 DD1Dir will call FoFMem   1 times, MxPair=         2
 NAB=     1 NAA=     0 NBB=     0.
 DE(Corr)= -0.24879965E-01 E(CORR)=     -1.1516570513     Delta= 9.63D-08
 NORM(A)=   0.10072577D+01
 Iteration Nr.   8
 **********************
 DD1Dir will call FoFMem   1 times, MxPair=         2
 NAB=     1 NAA=     0 NBB=     0.
 DE(Corr)= -0.24879972E-01 E(CORR)=     -1.1516570578     Delta=-6.54D-09
 NORM(A)=   0.10072577D+01
 Largest amplitude= 7.67D-02

 Z-AMPLITUDE ITERATIONS

 Iteration Nr.   1
 **********************
 DD1Dir will call FoFMem   1 times, MxPair=         2
 NAB=     1 NAA=     0 NBB=     0.
 DE(Z)  -0.24627031D-01          E(Z)=    -0.11514041172D+01
 NORM(A)=   0.10072577D+01
 Iteration Nr.   2
 **********************
 DD1Dir will call FoFMem   1 times, MxPair=         2
 NAB=     1 NAA=     0 NBB=     0.
 DE(Z)  -0.24627009D-01          E(Z)=    -0.11514040946D+01
 NORM(A)=   0.10072575D+01
 Iteration Nr.   3
 **********************
 DD1Dir will call FoFMem   1 times, MxPair=         2
 NAB=     1 NAA=     0 NBB=     0.
 DE(Z)  -0.24626907D-01          E(Z)=    -0.11514039932D+01
 NORM(A)=   0.10072575D+01
 Iteration Nr.   4
 **********************
 DD1Dir will call FoFMem   1 times, MxPair=         2
 NAB=     1 NAA=     0 NBB=     0.
 DE(Z)  -0.24626929D-01          E(Z)=    -0.11514040149D+01
 NORM(A)=   0.10072577D+01
 Iteration Nr.   5
 **********************
 DD1Dir will call FoFMem   1 times, MxPair=         2
 NAB=     1 NAA=     0 NBB=     0.
 DE(Z)  -0.24627034D-01          E(Z)=    -0.11514041201D+01
 NORM(A)=   0.10070469D+01
 Iteration Nr.   6
 **********************
 DD1Dir will call FoFMem   1 times, MxPair=         2
 NAB=     1 NAA=     0 NBB=     0.
 DE(Z)  -0.24519722D-01          E(Z)=    -0.11512968083D+01
 NORM(A)=   0.10070469D+01
 Iteration Nr.   7
 **********************
 DD1Dir will call FoFMem   1 times, MxPair=         2
 NAB=     1 NAA=     0 NBB=     0.
 DE(Z)  -0.24519724D-01          E(Z)=    -0.11512968099D+01
 NORM(A)=   0.10070469D+01
 Discarding MO integrals.
          IDoAtm=11
          Differentiating once with respect to electric field.
                with respect to dipole field.
          Differentiating once with respect to nuclear coordinates.
 Keep R1 ints in memory in symmetry-blocked form, NReq=802419.
          There are     1 degrees of freedom in the 1st order CPHF.  IDoFFX=0 NUNeed=     1.
 LinEq1:  Iter=  0 NonCon=     1 RMS=1.04D-02 Max=1.81D-02 NDo=     1
 AX will form     1 AO Fock derivatives at one time.
 LinEq1:  Iter=  1 NonCon=     0 RMS=2.11D-18 Max=3.17D-18 NDo=     1
 Linear equations converged to 1.000D-10 1.000D-09 after     1 iterations.
 End of Minotr F.D. properties file   721 does not exist.
 End of Minotr F.D. properties file   722 does not exist.
 End of Minotr F.D. properties file   788 does not exist.
 Calling FoFJK, ICntrl=  10002127 FMM=F ISym2X=1 I1Cent= 0 IOpClX= 0 NMat=1 NMatS=1 NMatT=0.
 ***** Axes restored to original set *****
 -------------------------------------------------------------------
 Center     Atomic                   Forces (Hartrees/Bohr)
 Number     Number              X              Y              Z
 -------------------------------------------------------------------
      1        1           0.002591980    0.003702843   -0.003210717
      2        1          -0.002591980   -0.003702843    0.003210717
 -------------------------------------------------------------------
 Cartesian Forces:  Max     0.003702843 RMS     0.003200943

 GradGradGradGradGradGradGradGradGradGradGradGradGradGradGradGradGradGrad
 Berny optimization.
 Using GEDIIS/GDIIS optimizer.
 Internal  Forces:  Max     0.005544196 RMS     0.005544196
 Search for a local minimum.
 Step number   3 out of a maximum of   20
 All quantities printed in internal units (Hartrees-Bohrs-Radians)
 Mixed Optimization -- RFO/linear search
 Update second derivatives using D2CorX and points    2    3
 DE= -1.64D-02 DEPred=-2.51D-02 R= 6.55D-01
 TightC=F SS=  1.41D+00  RLast= 3.83D-01 DXNew= 8.4853D-01 1.1503D+00
 Trust test= 6.55D-01 RLast= 3.83D-01 DXMaxT set to 8.49D-01
 The second derivative matrix:
                          R1
           R1           0.20333
 ITU=  1  1
 Use linear search instead of GDIIS.
     Eigenvalues ---    0.20333
 RFO step:  Lambda= 0.00000000D+00 EMin= 2.03330569D-01
 Quartic linear search produced a step of -0.04012.
 Iteration  1 RMS(Cart)=  0.01087759 RMS(Int)=  0.00000000
 Iteration  2 RMS(Cart)=  0.00000000 RMS(Int)=  0.00000000
 ClnCor:  largest displacement from symmetrization is 9.93D-16 for atom     2.
 Variable       Old X    -DE/DX   Delta X   Delta X   Delta X     New X
                                 (Linear)    (Quad)   (Total)
    R1        1.39527   0.00554   0.01538   0.00000   0.01538   1.41065
         Item               Value     Threshold  Converged?
 Maximum Force            0.005544     0.000450     NO 
 RMS     Force            0.005544     0.000300     NO 
 Maximum Displacement     0.005137     0.001800     NO 
 RMS     Displacement     0.010878     0.001200     NO 
 Predicted change in Energy=-6.122921D-05
 GradGradGradGradGradGradGradGradGradGradGradGradGradGradGradGradGradGrad

                          Input orientation:                          
 ---------------------------------------------------------------------
 Center     Atomic      Atomic             Coordinates (Angstroms)
 Number     Number       Type             X           Y           Z
 ---------------------------------------------------------------------
      1          1           0       -0.190395   -2.071960    1.136381
      2          1           0       -0.539385   -2.570520    1.568679
 ---------------------------------------------------------------------
 Stoichiometry    H2
 Framework group  D*H[C*(H.H)]
 Deg. of freedom     1
 Full point group                 D*H     NOp   8
 Largest Abelian subgroup         D2H     NOp   8
 Largest concise Abelian subgroup C2      NOp   2
                         Standard orientation:                         
 ---------------------------------------------------------------------
 Center     Atomic      Atomic             Coordinates (Angstroms)
 Number     Number       Type             X           Y           Z
 ---------------------------------------------------------------------
      1          1           0        0.000000    0.000000    0.373242
      2          1           0        0.000000    0.000000   -0.373242
 ---------------------------------------------------------------------
 Rotational constants (GHZ):      0.0000000   1799.7866766   1799.7866766
 Standard basis: 6-31G(d) (6D, 7F)
 There are     2 symmetry adapted cartesian basis functions of AG  symmetry.
 There are     0 symmetry adapted cartesian basis functions of B1G symmetry.
 There are     0 symmetry adapted cartesian basis functions of B2G symmetry.
 There are     0 symmetry adapted cartesian basis functions of B3G symmetry.
 There are     0 symmetry adapted cartesian basis functions of AU  symmetry.
 There are     2 symmetry adapted cartesian basis functions of B1U symmetry.
 There are     0 symmetry adapted cartesian basis functions of B2U symmetry.
 There are     0 symmetry adapted cartesian basis functions of B3U symmetry.
 There are     2 symmetry adapted basis functions of AG  symmetry.
 There are     0 symmetry adapted basis functions of B1G symmetry.
 There are     0 symmetry adapted basis functions of B2G symmetry.
 There are     0 symmetry adapted basis functions of B3G symmetry.
 There are     0 symmetry adapted basis functions of AU  symmetry.
 There are     2 symmetry adapted basis functions of B1U symmetry.
 There are     0 symmetry adapted basis functions of B2U symmetry.
 There are     0 symmetry adapted basis functions of B3U symmetry.
     4 basis functions,     8 primitive gaussians,     4 cartesian basis functions
     1 alpha electrons        1 beta electrons
       nuclear repulsion energy         0.7088928941 Hartrees.
 NAtoms=    2 NActive=    2 NUniq=    1 SFac= 4.00D+00 NAtFMM=   60 NAOKFM=F Big=F
 Integral buffers will be    131072 words long.
 Raffenetti 1 integral format.
 Two-electron integral symmetry is turned on.
 One-electron integrals computed using PRISM.
 NBasis=     4 RedAO= T EigKep=  1.38D-01  NBF=     2     0     0     0     0     2     0     0
 NBsUse=     4 1.00D-06 EigRej= -1.00D+00 NBFU=     2     0     0     0     0     2     0     0
 Initial guess from the checkpoint file:  "/scr/Gau-3633.chk"
 B after Tr=     0.000000    0.000000    0.000000
         Rot=    1.000000    0.000000    0.000000    0.000000 Ang=   0.00 deg.
 Initial guess orbital symmetries:
       Occupied  (SGG)
       Virtual   (SGG) (SGU) (SGU)
 Keep R1 ints in memory in symmetry-blocked form, NReq=821740.
 Requested convergence on RMS density matrix=1.00D-08 within 128 cycles.
 Requested convergence on MAX density matrix=1.00D-06.
 Requested convergence on             energy=1.00D-06.
 No special actions if energy rises.
 SCF Done:  E(RHF) =  -1.12663411519     A.U. after    4 cycles
            NFock=  4  Conv=0.31D-12     -V/T= 2.0070
 Range of M.O.s used for correlation:     1     4
 NBasis=     4 NAE=     1 NBE=     1 NFC=     0 NFV=     0
 NROrb=      4 NOA=     1 NOB=     1 NVA=     3 NVB=     3
 Semi-Direct transformation.
 ModeAB=           4 MOrb=             1 LenV=      33499445
 LASXX=           10 LTotXX=          10 LenRXX=          29
 LTotAB=          19 MaxLAS=          24 LenRXY=           0
 NonZer=          39 LenScr=      785920 LnRSAI=          24
 LnScr1=      785920 LExtra=           0 Total=      1571893
 MaxDsk=          -1 SrtSym=           T ITran=            4
 JobTyp=0 Pass  1:  I=   1 to   1.
 (rs|ai) integrals will be sorted in core.
 Spin components of T(2) and E(2):
     alpha-alpha T2 =       0.0000000000D+00 E2=      0.0000000000D+00
     alpha-beta  T2 =       0.6713576860D-02 E2=     -0.1745159848D-01
     beta-beta   T2 =       0.0000000000D+00 E2=      0.0000000000D+00
 ANorm=    0.1003351173D+01
 E2 =    -0.1745159848D-01 EUMP2 =    -0.11440857136710D+01
 Keep R2 and R3 ints in memory in symmetry-blocked form, NReq=801520.
 Iterations=  50 Convergence= 0.100D-07
 Iteration Nr.   1
 **********************
 DD1Dir will call FoFMem   1 times, MxPair=         2
 NAB=     1 NAA=     0 NBB=     0.
 MP4(R+Q)=  0.11716265D-03
 E3=       -0.52430502D-02        EUMP3=      -0.11493287639D+01
 E4(DQ)=   -0.15937386D-02        UMP4(DQ)=   -0.11509225025D+01
 E4(SDQ)=  -0.16230172D-02        UMP4(SDQ)=  -0.11509517810D+01
 DE(Corr)= -0.22576322E-01 E(Corr)=     -1.1492104375    
 NORM(A)=   0.10070196D+01
 Iteration Nr.   2
 **********************
 DD1Dir will call FoFMem   1 times, MxPair=         2
 NAB=     1 NAA=     0 NBB=     0.
 DE(Corr)= -0.24865350E-01 E(CORR)=     -1.1514994650     Delta=-2.29D-03
 NORM(A)=   0.10073718D+01
 Iteration Nr.   3
 **********************
 DD1Dir will call FoFMem   1 times, MxPair=         2
 NAB=     1 NAA=     0 NBB=     0.
 DE(Corr)= -0.25048952E-01 E(CORR)=     -1.1516830669     Delta=-1.84D-04
 NORM(A)=   0.10074114D+01
 Iteration Nr.   4
 **********************
 DD1Dir will call FoFMem   1 times, MxPair=         2
 NAB=     1 NAA=     0 NBB=     0.
 DE(Corr)= -0.25066971E-01 E(CORR)=     -1.1517010862     Delta=-1.80D-05
 NORM(A)=   0.10074042D+01
 Iteration Nr.   5
 **********************
 DD1Dir will call FoFMem   1 times, MxPair=         2
 NAB=     1 NAA=     0 NBB=     0.
 DE(Corr)= -0.25063322E-01 E(CORR)=     -1.1516974369     Delta= 3.65D-06
 NORM(A)=   0.10074051D+01
 Iteration Nr.   6
 **********************
 DD1Dir will call FoFMem   1 times, MxPair=         2
 NAB=     1 NAA=     0 NBB=     0.
 DE(Corr)= -0.25063772E-01 E(CORR)=     -1.1516978876     Delta=-4.51D-07
 NORM(A)=   0.10074049D+01
 Iteration Nr.   7
 **********************
 DD1Dir will call FoFMem   1 times, MxPair=         2
 NAB=     1 NAA=     0 NBB=     0.
 DE(Corr)= -0.25063671E-01 E(CORR)=     -1.1516977861     Delta= 1.02D-07
 NORM(A)=   0.10074049D+01
 Iteration Nr.   8
 **********************
 DD1Dir will call FoFMem   1 times, MxPair=         2
 NAB=     1 NAA=     0 NBB=     0.
 DE(Corr)= -0.25063678E-01 E(CORR)=     -1.1516977930     Delta=-6.89D-09
 NORM(A)=   0.10074049D+01
 Largest amplitude= 7.83D-02

 Z-AMPLITUDE ITERATIONS

 Iteration Nr.   1
 **********************
 DD1Dir will call FoFMem   1 times, MxPair=         2
 NAB=     1 NAA=     0 NBB=     0.
 DE(Z)  -0.24804256D-01          E(Z)=    -0.11514383708D+01
 NORM(A)=   0.10074048D+01
 Iteration Nr.   2
 **********************
 DD1Dir will call FoFMem   1 times, MxPair=         2
 NAB=     1 NAA=     0 NBB=     0.
 DE(Z)  -0.24804197D-01          E(Z)=    -0.11514383121D+01
 NORM(A)=   0.10074048D+01
 Iteration Nr.   3
 **********************
 DD1Dir will call FoFMem   1 times, MxPair=         2
 NAB=     1 NAA=     0 NBB=     0.
 DE(Z)  -0.24804217D-01          E(Z)=    -0.11514383326D+01
 NORM(A)=   0.10074048D+01
 Iteration Nr.   4
 **********************
 DD1Dir will call FoFMem   1 times, MxPair=         2
 NAB=     1 NAA=     0 NBB=     0.
 DE(Z)  -0.24804234D-01          E(Z)=    -0.11514383495D+01
 NORM(A)=   0.10074049D+01
 Iteration Nr.   5
 **********************
 DD1Dir will call FoFMem   1 times, MxPair=         2
 NAB=     1 NAA=     0 NBB=     0.
 DE(Z)  -0.24804268D-01          E(Z)=    -0.11514383831D+01
 NORM(A)=   0.10071854D+01
 Iteration Nr.   6
 **********************
 DD1Dir will call FoFMem   1 times, MxPair=         2
 NAB=     1 NAA=     0 NBB=     0.
 DE(Z)  -0.24693347D-01          E(Z)=    -0.11513274621D+01
 NORM(A)=   0.10071854D+01
 Iteration Nr.   7
 **********************
 DD1Dir will call FoFMem   1 times, MxPair=         2
 NAB=     1 NAA=     0 NBB=     0.
 DE(Z)  -0.24693345D-01          E(Z)=    -0.11513274606D+01
 NORM(A)=   0.10071854D+01
 Discarding MO integrals.
          IDoAtm=11
          Differentiating once with respect to electric field.
                with respect to dipole field.
          Differentiating once with respect to nuclear coordinates.
 Keep R1 ints in memory in symmetry-blocked form, NReq=802419.
          There are     1 degrees of freedom in the 1st order CPHF.  IDoFFX=0 NUNeed=     1.
 LinEq1:  Iter=  0 NonCon=     1 RMS=1.08D-02 Max=1.88D-02 NDo=     1
 AX will form     1 AO Fock derivatives at one time.
 LinEq1:  Iter=  1 NonCon=     0 RMS=6.42D-18 Max=1.09D-17 NDo=     1
 Linear equations converged to 1.000D-10 1.000D-09 after     1 iterations.
 End of Minotr F.D. properties file   721 does not exist.
 End of Minotr F.D. properties file   722 does not exist.
 End of Minotr F.D. properties file   788 does not exist.
 Calling FoFJK, ICntrl=  10002127 FMM=F ISym2X=1 I1Cent= 0 IOpClX= 0 NMat=1 NMatS=1 NMatT=0.
 ***** Axes restored to original set *****
 -------------------------------------------------------------------
 Center     Atomic                   Forces (Hartrees/Bohr)
 Number     Number              X              Y              Z
 -------------------------------------------------------------------
      1        1          -0.000091501   -0.000130716    0.000113343
      2        1           0.000091501    0.000130716   -0.000113343
 -------------------------------------------------------------------
 Cartesian Forces:  Max     0.000130716 RMS     0.000112998

 GradGradGradGradGradGradGradGradGradGradGradGradGradGradGradGradGradGrad
 Berny optimization.
 Using GEDIIS/GDIIS optimizer.
 Internal  Forces:  Max     0.000195719 RMS     0.000195719
 Search for a local minimum.
 Step number   4 out of a maximum of   20
 All quantities printed in internal units (Hartrees-Bohrs-Radians)
 Mixed Optimization -- En-DIIS/RFO-DIIS
 Update second derivatives using D2CorX and points    3    4
 DE= -4.07D-05 DEPred=-6.12D-05 R= 6.65D-01
 TightC=F SS=  1.41D+00  RLast= 1.54D-02 DXNew= 1.4270D+00 4.6150D-02
 Trust test= 6.65D-01 RLast= 1.54D-02 DXMaxT set to 8.49D-01
 The second derivative matrix:
                          R1
           R1           0.37313
 ITU=  1  1
 Use linear search instead of GDIIS.
     Eigenvalues ---    0.37313
 RFO step:  Lambda= 0.00000000D+00 EMin= 3.73127848D-01
 Quartic linear search produced a step of -0.03502.
 Iteration  1 RMS(Cart)=  0.00038093 RMS(Int)=  0.00000000
 Iteration  2 RMS(Cart)=  0.00000000 RMS(Int)=  0.00000000
 ClnCor:  largest displacement from symmetrization is 1.02D-15 for atom     2.
 Variable       Old X    -DE/DX   Delta X   Delta X   Delta X     New X
                                 (Linear)    (Quad)   (Total)
    R1        1.41065  -0.00020  -0.00054   0.00000  -0.00054   1.41011
         Item               Value     Threshold  Converged?
 Maximum Force            0.000196     0.000450     YES
 RMS     Force            0.000196     0.000300     YES
 Maximum Displacement     0.000180     0.001800     YES
 RMS     Displacement     0.000381     0.001200     YES
 Predicted change in Energy=-5.129309D-08
 Optimization completed.
    -- Stationary point found.
                           ----------------------------
                           !   Optimized Parameters   !
                           ! (Angstroms and Degrees)  !
 --------------------------                            --------------------------
 ! Name  Definition              Value          Derivative Info.                !
 --------------------------------------------------------------------------------
 ! R1    R(1,2)                  0.7465         -DE/DX =   -0.0002              !
 --------------------------------------------------------------------------------
 GradGradGradGradGradGradGradGradGradGradGradGradGradGradGradGradGradGrad

                          Input orientation:                          
 ---------------------------------------------------------------------
 Center     Atomic      Atomic             Coordinates (Angstroms)
 Number     Number       Type             X           Y           Z
 ---------------------------------------------------------------------
      1          1           0       -0.190395   -2.071960    1.136381
      2          1           0       -0.539385   -2.570520    1.568679
 ---------------------------------------------------------------------
 Stoichiometry    H2
 Framework group  D*H[C*(H.H)]
 Deg. of freedom     1
 Full point group                 D*H     NOp   8
 Largest Abelian subgroup         D2H     NOp   8
 Largest concise Abelian subgroup C2      NOp   2
                         Standard orientation:                         
 ---------------------------------------------------------------------
 Center     Atomic      Atomic             Coordinates (Angstroms)
 Number     Number       Type             X           Y           Z
 ---------------------------------------------------------------------
      1          1           0        0.000000    0.000000    0.373242
      2          1           0        0.000000    0.000000   -0.373242
 ---------------------------------------------------------------------
 Rotational constants (GHZ):      0.0000000   1799.7866766   1799.7866766

 **********************************************************************

            Population analysis using the SCF density.

 **********************************************************************

 Orbital symmetries:
       Occupied  (SGG)
       Virtual   (SGU) (SGG) (SGU)
 The electronic state is 1-SGG.
 Alpha  occ. eigenvalues --   -0.59386
 Alpha virt. eigenvalues --    0.23674   0.77786   1.39592
          Condensed to atoms (all electrons):
               1          2
     1  H    0.596550   0.403450
     2  H    0.403450   0.596550
 Mulliken charges:
               1
     1  H    0.000000
     2  H    0.000000
 Sum of Mulliken charges =   0.00000
 Mulliken charges with hydrogens summed into heavy atoms:
               1
 Electronic spatial extent (au):  <R**2>=              5.2538
 Charge=              0.0000 electrons
 Dipole moment (field-independent basis, Debye):
    X=              0.0000    Y=              0.0000    Z=              0.0000  Tot=              0.0000
 Quadrupole moment (field-independent basis, Debye-Ang):
   XX=             -2.0530   YY=             -2.0530   ZZ=             -1.6223
   XY=              0.0000   XZ=              0.0000   YZ=              0.0000
 Traceless Quadrupole moment (field-independent basis, Debye-Ang):
   XX=             -0.1436   YY=             -0.1436   ZZ=              0.2872
   XY=              0.0000   XZ=              0.0000   YZ=              0.0000
 Octapole moment (field-independent basis, Debye-Ang**2):
  XXX=              0.0000  YYY=              0.0000  ZZZ=              0.0000  XYY=              0.0000
  XXY=              0.0000  XXZ=              0.0000  XZZ=              0.0000  YZZ=              0.0000
  YYZ=              0.0000  XYZ=              0.0000
 Hexadecapole moment (field-independent basis, Debye-Ang**3):
 XXXX=             -1.9092 YYYY=             -1.9092 ZZZZ=             -2.8968 XXXY=              0.0000
 XXXZ=              0.0000 YYYX=              0.0000 YYYZ=              0.0000 ZZZX=              0.0000
 ZZZY=              0.0000 XXYY=             -0.6364 XXZZ=             -0.8124 YYZZ=             -0.8124
 XXYZ=              0.0000 YYXZ=              0.0000 ZZXY=              0.0000
 N-N= 7.088928941254D-01 E-N=-3.602171135136D+00  KE= 1.118829952709D+00
 Symmetry AG   KE= 1.118829952709D+00
 Symmetry B1G  KE= 0.000000000000D+00
 Symmetry B2G  KE= 0.000000000000D+00
 Symmetry B3G  KE= 0.000000000000D+00
 Symmetry AU   KE= 0.000000000000D+00
 Symmetry B1U  KE= 6.459397208254D-32
 Symmetry B2U  KE= 0.000000000000D+00
 Symmetry B3U  KE= 0.000000000000D+00
 1\1\GINC-N0297\FOpt\RCCSD-FC\6-31G(d)\H2\TAIYUPAN\24-Feb-2017\0\\#n CC
 SD/6-31G(d) Opt\\Title\\0,1\H,-0.1903947547,-2.0719601086,1.1363806569
 \H,-0.5393852453,-2.5705198914,1.5686793431\\Version=ES64L-G09RevE.01\
 State=1-SGG\HF=-1.1266341\MP2=-1.1440857\MP3=-1.1493288\MP4D=-1.151039
 7\MP4DQ=-1.1509225\MP4SDQ=-1.1509518\CCSD=-1.1516978\RMSD=3.138e-13\RM
 SF=1.130e-04\Dipole=0.,0.,0.\PG=D*H [C*(H1.H1)]\\@


 GOOD SENSE ABOUT TRIVIALITIES IS BETTER THAN NONSENSE
 ABOUT THINGS THAT MATTER

                                       -- MAX BEERBOHM
 Job cpu time:       0 days  0 hours  0 minutes 29.0 seconds.
 File lengths (MBytes):  RWF=     18 Int=      0 D2E=      0 Chk=      1 Scr=      1
 Normal termination of Gaussian 09 at Fri Feb 24 00:05:14 2017.
