 Entering Gaussian System, Link 0=g09
 Input=bmim-cl-3.com
 Output=bmim-cl-3.log
 Initial command:
 /gscratch/pfaendtner/codes/G09/g09/l1.exe /gscratch/pfaendtner/wesley/gaussian/Gau-10433.inp -scrdir=/gscratch/pfaendtner/wesley/gaussian/
 Entering Link 1 = /gscratch/pfaendtner/codes/G09/g09/l1.exe PID=     10434.
  
 Copyright (c) 1988,1990,1992,1993,1995,1998,2003,2009, Gaussian, Inc.
                  All Rights Reserved.
  
 This is part of the Gaussian(R) 09 program.  It is based on
 the Gaussian(R) 03 system (copyright 2003, Gaussian, Inc.),
 the Gaussian(R) 98 system (copyright 1998, Gaussian, Inc.),
 the Gaussian(R) 94 system (copyright 1995, Gaussian, Inc.),
 the Gaussian 92(TM) system (copyright 1992, Gaussian, Inc.),
 the Gaussian 90(TM) system (copyright 1990, Gaussian, Inc.),
 the Gaussian 88(TM) system (copyright 1988, Gaussian, Inc.),
 the Gaussian 86(TM) system (copyright 1986, Carnegie Mellon
 University), and the Gaussian 82(TM) system (copyright 1983,
 Carnegie Mellon University). Gaussian is a federally registered
 trademark of Gaussian, Inc.
  
 This software contains proprietary and confidential information,
 including trade secrets, belonging to Gaussian, Inc.
  
 This software is provided under written license and may be
 used, copied, transmitted, or stored only in accord with that
 written license.
  
 The following legend is applicable only to US Government
 contracts under FAR:
  
                    RESTRICTED RIGHTS LEGEND
  
 Use, reproduction and disclosure by the US Government is
 subject to restrictions as set forth in subparagraphs (a)
 and (c) of the Commercial Computer Software - Restricted
 Rights clause in FAR 52.227-19.
  
 Gaussian, Inc.
 340 Quinnipiac St., Bldg. 40, Wallingford CT 06492
  
  
 ---------------------------------------------------------------
 Warning -- This program may not be used in any manner that
 competes with the business of Gaussian, Inc. or will provide
 assistance to any competitor of Gaussian, Inc.  The licensee
 of this program is prohibited from giving any competitor of
 Gaussian, Inc. access to this program.  By using this program,
 the user acknowledges that Gaussian, Inc. is engaged in the
 business of creating and licensing software in the field of
 computational chemistry and represents and warrants to the
 licensee that it is not a competitor of Gaussian, Inc. and that
 it will not use this program in any manner prohibited above.
 ---------------------------------------------------------------
  

 Cite this work as:
 Gaussian 09, Revision A.02,
 M. J. Frisch, G. W. Trucks, H. B. Schlegel, G. E. Scuseria, 
 M. A. Robb, J. R. Cheeseman, G. Scalmani, V. Barone, B. Mennucci, 
 G. A. Petersson, H. Nakatsuji, M. Caricato, X. Li, H. P. Hratchian, 
 A. F. Izmaylov, J. Bloino, G. Zheng, J. L. Sonnenberg, M. Hada, 
 M. Ehara, K. Toyota, R. Fukuda, J. Hasegawa, M. Ishida, T. Nakajima, 
 Y. Honda, O. Kitao, H. Nakai, T. Vreven, J. A. Montgomery, Jr., 
 J. E. Peralta, F. Ogliaro, M. Bearpark, J. J. Heyd, E. Brothers, 
 K. N. Kudin, V. N. Staroverov, R. Kobayashi, J. Normand, 
 K. Raghavachari, A. Rendell, J. C. Burant, S. S. Iyengar, J. Tomasi, 
 M. Cossi, N. Rega, J. M. Millam, M. Klene, J. E. Knox, J. B. Cross, 
 V. Bakken, C. Adamo, J. Jaramillo, R. Gomperts, R. E. Stratmann, 
 O. Yazyev, A. J. Austin, R. Cammi, C. Pomelli, J. W. Ochterski, 
 R. L. Martin, K. Morokuma, V. G. Zakrzewski, G. A. Voth, 
 P. Salvador, J. J. Dannenberg, S. Dapprich, A. D. Daniels, 
 O. Farkas, J. B. Foresman, J. V. Ortiz, J. Cioslowski, 
 and D. J. Fox, Gaussian, Inc., Wallingford CT, 2009.
 
 ******************************************
 Gaussian 09:  EM64L-G09RevA.02 11-Jun-2009
                 8-Mar-2017 
 ******************************************
 %chk=bmim-cl-3.chk
 %nprocshared=8
 Will use up to    8 processors via shared memory.
 --------------------------------------
 # opt M062X/6-311+G* geom=connectivity
 --------------------------------------
 1/14=-1,18=20,19=15,26=3,38=1,57=2/1,3;
 2/9=110,12=2,17=6,18=5,40=1/2;
 3/5=4,6=6,7=11,11=2,16=1,25=1,30=1,71=1,74=-55/1,2,3;
 4//1;
 5/5=2,38=5/2;
 6/7=2,8=2,9=2,10=2,28=1/1;
 7//1,2,3,16;
 1/14=-1,18=20,19=15/3(2);
 2/9=110/2;
 99//99;
 2/9=110/2;
 3/5=4,6=6,7=11,11=2,16=1,25=1,30=1,71=1,74=-55/1,2,3;
 4/5=5,16=3/1;
 5/5=2,38=5/2;
 7//1,2,3,16;
 1/14=-1,18=20,19=15/3(-5);
 2/9=110/2;
 6/7=2,8=2,9=2,10=2,19=2,28=1/1;
 99/9=1/99;
 -------------------
 Title Card Required
 -------------------
 Symbolic Z-matrix:
 Charge =  0 Multiplicity = 1
 C                    -1.14717   0.852     0.00436 
 C                     0.50471   2.42076   0.23179 
 C                    -1.42155   2.10739  -0.74419 
 H                     1.40344   2.89005   0.57379 
 H                    -1.96807   2.23691  -1.65493 
 H                    -1.82031   0.13626   0.42802 
 C                     0.93263   0.14073   1.14279 
 H                     1.99162   0.29382   1.14139 
 H                     0.5264    0.46653   2.07753 
 C                     0.63011  -1.35632   0.94549 
 H                    -0.42888  -1.5094    0.9469 
 H                     1.03634  -1.68211   0.01076 
 C                     1.26708  -2.16413   2.09149 
 H                     2.32607  -2.01104   2.09008 
 H                     0.86085  -1.83833   3.02623 
 C                     0.96456  -3.66118   1.89419 
 H                     1.37079  -3.98698   0.95945 
 H                     1.40713  -4.22245   2.69043 
 H                    -0.09443  -3.81426   1.89559 
 C                    -0.99284   4.4231    0.36521 
 H                    -1.67075   4.83413  -0.35339 
 H                    -1.46324   4.39844   1.32595 
 H                    -0.11341   5.03063   0.41416 
 N                     0.32461   0.91183   0.04889 
 N                    -0.62345   3.05762  -0.03469 
 Cl                    2.07087   3.19412   1.85351 
 

 GradGradGradGradGradGradGradGradGradGradGradGradGradGradGradGradGradGrad
 Berny optimization.
 Initialization pass.
                           ----------------------------
                           !    Initial Parameters    !
                           ! (Angstroms and Degrees)  !
 --------------------------                            --------------------------
 ! Name  Definition              Value          Derivative Info.                !
 --------------------------------------------------------------------------------
 ! R1    R(1,3)                  1.4872         estimate D2E/DX2                !
 ! R2    R(1,6)                  1.07           estimate D2E/DX2                !
 ! R3    R(1,24)                 1.4737         estimate D2E/DX2                !
 ! R4    R(2,4)                  1.07           estimate D2E/DX2                !
 ! R5    R(2,24)                 1.5306         estimate D2E/DX2                !
 ! R6    R(2,25)                 1.3226         estimate D2E/DX2                !
 ! R7    R(3,5)                  1.07           estimate D2E/DX2                !
 ! R8    R(3,25)                 1.4294         estimate D2E/DX2                !
 ! R9    R(4,26)                 1.475          estimate D2E/DX2                !
 ! R10   R(7,8)                  1.07           estimate D2E/DX2                !
 ! R11   R(7,9)                  1.07           estimate D2E/DX2                !
 ! R12   R(7,10)                 1.54           estimate D2E/DX2                !
 ! R13   R(7,24)                 1.47           estimate D2E/DX2                !
 ! R14   R(10,11)                1.07           estimate D2E/DX2                !
 ! R15   R(10,12)                1.07           estimate D2E/DX2                !
 ! R16   R(10,13)                1.54           estimate D2E/DX2                !
 ! R17   R(13,14)                1.07           estimate D2E/DX2                !
 ! R18   R(13,15)                1.07           estimate D2E/DX2                !
 ! R19   R(13,16)                1.54           estimate D2E/DX2                !
 ! R20   R(16,17)                1.07           estimate D2E/DX2                !
 ! R21   R(16,18)                1.07           estimate D2E/DX2                !
 ! R22   R(16,19)                1.07           estimate D2E/DX2                !
 ! R23   R(20,21)                1.07           estimate D2E/DX2                !
 ! R24   R(20,22)                1.07           estimate D2E/DX2                !
 ! R25   R(20,23)                1.07           estimate D2E/DX2                !
 ! R26   R(20,25)                1.47           estimate D2E/DX2                !
 ! A1    A(3,1,6)              130.3829         estimate D2E/DX2                !
 ! A2    A(3,1,24)              99.5093         estimate D2E/DX2                !
 ! A3    A(6,1,24)             130.0531         estimate D2E/DX2                !
 ! A4    A(4,2,24)             124.7087         estimate D2E/DX2                !
 ! A5    A(4,2,25)             124.7254         estimate D2E/DX2                !
 ! A6    A(24,2,25)            110.5025         estimate D2E/DX2                !
 ! A7    A(1,3,5)              128.6707         estimate D2E/DX2                !
 ! A8    A(1,3,25)             102.0233         estimate D2E/DX2                !
 ! A9    A(5,3,25)             128.8426         estimate D2E/DX2                !
 ! A10   A(2,4,26)             138.3989         estimate D2E/DX2                !
 ! A11   A(8,7,9)              109.4712         estimate D2E/DX2                !
 ! A12   A(8,7,10)             109.4712         estimate D2E/DX2                !
 ! A13   A(8,7,24)             109.4712         estimate D2E/DX2                !
 ! A14   A(9,7,10)             109.4712         estimate D2E/DX2                !
 ! A15   A(9,7,24)             109.4712         estimate D2E/DX2                !
 ! A16   A(10,7,24)            109.4712         estimate D2E/DX2                !
 ! A17   A(7,10,11)            109.4712         estimate D2E/DX2                !
 ! A18   A(7,10,12)            109.4712         estimate D2E/DX2                !
 ! A19   A(7,10,13)            109.4712         estimate D2E/DX2                !
 ! A20   A(11,10,12)           109.4712         estimate D2E/DX2                !
 ! A21   A(11,10,13)           109.4712         estimate D2E/DX2                !
 ! A22   A(12,10,13)           109.4712         estimate D2E/DX2                !
 ! A23   A(10,13,14)           109.4712         estimate D2E/DX2                !
 ! A24   A(10,13,15)           109.4712         estimate D2E/DX2                !
 ! A25   A(10,13,16)           109.4712         estimate D2E/DX2                !
 ! A26   A(14,13,15)           109.4712         estimate D2E/DX2                !
 ! A27   A(14,13,16)           109.4712         estimate D2E/DX2                !
 ! A28   A(15,13,16)           109.4712         estimate D2E/DX2                !
 ! A29   A(13,16,17)           109.4712         estimate D2E/DX2                !
 ! A30   A(13,16,18)           109.4712         estimate D2E/DX2                !
 ! A31   A(13,16,19)           109.4712         estimate D2E/DX2                !
 ! A32   A(17,16,18)           109.4712         estimate D2E/DX2                !
 ! A33   A(17,16,19)           109.4712         estimate D2E/DX2                !
 ! A34   A(18,16,19)           109.4712         estimate D2E/DX2                !
 ! A35   A(21,20,22)           109.4712         estimate D2E/DX2                !
 ! A36   A(21,20,23)           109.4712         estimate D2E/DX2                !
 ! A37   A(21,20,25)           109.4712         estimate D2E/DX2                !
 ! A38   A(22,20,23)           109.4712         estimate D2E/DX2                !
 ! A39   A(22,20,25)           109.4712         estimate D2E/DX2                !
 ! A40   A(23,20,25)           109.4712         estimate D2E/DX2                !
 ! A41   A(1,24,2)              99.2736         estimate D2E/DX2                !
 ! A42   A(1,24,7)             114.4737         estimate D2E/DX2                !
 ! A43   A(2,24,7)             112.3046         estimate D2E/DX2                !
 ! A44   A(2,25,3)             104.8423         estimate D2E/DX2                !
 ! A45   A(2,25,20)            127.3583         estimate D2E/DX2                !
 ! A46   A(3,25,20)            127.7501         estimate D2E/DX2                !
 ! D1    D(6,1,3,5)            -58.789          estimate D2E/DX2                !
 ! D2    D(6,1,3,25)           128.5631         estimate D2E/DX2                !
 ! D3    D(24,1,3,5)           123.7399         estimate D2E/DX2                !
 ! D4    D(24,1,3,25)          -48.908          estimate D2E/DX2                !
 ! D5    D(3,1,24,2)            37.0391         estimate D2E/DX2                !
 ! D6    D(3,1,24,7)           156.8304         estimate D2E/DX2                !
 ! D7    D(6,1,24,2)          -140.4443         estimate D2E/DX2                !
 ! D8    D(6,1,24,7)           -20.653          estimate D2E/DX2                !
 ! D9    D(24,2,4,26)          -83.0924         estimate D2E/DX2                !
 ! D10   D(25,2,4,26)           93.734          estimate D2E/DX2                !
 ! D11   D(4,2,24,1)           162.6875         estimate D2E/DX2                !
 ! D12   D(4,2,24,7)            41.3088         estimate D2E/DX2                !
 ! D13   D(25,2,24,1)          -14.5281         estimate D2E/DX2                !
 ! D14   D(25,2,24,7)         -135.9067         estimate D2E/DX2                !
 ! D15   D(4,2,25,3)           166.7252         estimate D2E/DX2                !
 ! D16   D(4,2,25,20)          -15.6862         estimate D2E/DX2                !
 ! D17   D(24,2,25,3)          -16.0598         estimate D2E/DX2                !
 ! D18   D(24,2,25,20)         161.5288         estimate D2E/DX2                !
 ! D19   D(1,3,25,2)            40.527          estimate D2E/DX2                !
 ! D20   D(1,3,25,20)         -137.0489         estimate D2E/DX2                !
 ! D21   D(5,3,25,2)          -132.1031         estimate D2E/DX2                !
 ! D22   D(5,3,25,20)           50.321          estimate D2E/DX2                !
 ! D23   D(8,7,10,11)          180.0            estimate D2E/DX2                !
 ! D24   D(8,7,10,12)          -60.0            estimate D2E/DX2                !
 ! D25   D(8,7,10,13)           60.0            estimate D2E/DX2                !
 ! D26   D(9,7,10,11)           60.0            estimate D2E/DX2                !
 ! D27   D(9,7,10,12)          180.0            estimate D2E/DX2                !
 ! D28   D(9,7,10,13)          -60.0            estimate D2E/DX2                !
 ! D29   D(24,7,10,11)         -60.0            estimate D2E/DX2                !
 ! D30   D(24,7,10,12)          60.0            estimate D2E/DX2                !
 ! D31   D(24,7,10,13)         180.0            estimate D2E/DX2                !
 ! D32   D(8,7,24,1)          -176.108          estimate D2E/DX2                !
 ! D33   D(8,7,24,2)           -63.892          estimate D2E/DX2                !
 ! D34   D(9,7,24,1)           -56.108          estimate D2E/DX2                !
 ! D35   D(9,7,24,2)            56.108          estimate D2E/DX2                !
 ! D36   D(10,7,24,1)           63.892          estimate D2E/DX2                !
 ! D37   D(10,7,24,2)          176.108          estimate D2E/DX2                !
 ! D38   D(7,10,13,14)         -60.0            estimate D2E/DX2                !
 ! D39   D(7,10,13,15)          60.0            estimate D2E/DX2                !
 ! D40   D(7,10,13,16)         180.0            estimate D2E/DX2                !
 ! D41   D(11,10,13,14)        180.0            estimate D2E/DX2                !
 ! D42   D(11,10,13,15)        -60.0            estimate D2E/DX2                !
 ! D43   D(11,10,13,16)         60.0            estimate D2E/DX2                !
 ! D44   D(12,10,13,14)         60.0            estimate D2E/DX2                !
 ! D45   D(12,10,13,15)       -180.0            estimate D2E/DX2                !
 ! D46   D(12,10,13,16)        -60.0            estimate D2E/DX2                !
 ! D47   D(10,13,16,17)         60.0            estimate D2E/DX2                !
 ! D48   D(10,13,16,18)        180.0            estimate D2E/DX2                !
 ! D49   D(10,13,16,19)        -60.0            estimate D2E/DX2                !
 ! D50   D(14,13,16,17)        -60.0            estimate D2E/DX2                !
 ! D51   D(14,13,16,18)         60.0            estimate D2E/DX2                !
 ! D52   D(14,13,16,19)        180.0            estimate D2E/DX2                !
 ! D53   D(15,13,16,17)        180.0            estimate D2E/DX2                !
 ! D54   D(15,13,16,18)        -60.0            estimate D2E/DX2                !
 ! D55   D(15,13,16,19)         60.0            estimate D2E/DX2                !
 ! D56   D(21,20,25,2)         151.4742         estimate D2E/DX2                !
 ! D57   D(21,20,25,3)         -31.4742         estimate D2E/DX2                !
 ! D58   D(22,20,25,2)         -88.5258         estimate D2E/DX2                !
 ! D59   D(22,20,25,3)          88.5258         estimate D2E/DX2                !
 ! D60   D(23,20,25,2)          31.4742         estimate D2E/DX2                !
 ! D61   D(23,20,25,3)        -151.4742         estimate D2E/DX2                !
 --------------------------------------------------------------------------------
 Trust Radius=3.00D-01 FncErr=1.00D-07 GrdErr=1.00D-06
 Number of steps in this run= 143 maximum allowed number of steps= 156.
 GradGradGradGradGradGradGradGradGradGradGradGradGradGradGradGradGradGrad

                          Input orientation:                          
 ---------------------------------------------------------------------
 Center     Atomic      Atomic             Coordinates (Angstroms)
 Number     Number       Type             X           Y           Z
 ---------------------------------------------------------------------
      1          6           0       -1.147166    0.851999    0.004358
      2          6           0        0.504714    2.420757    0.231794
      3          6           0       -1.421553    2.107393   -0.744190
      4          1           0        1.403438    2.890050    0.573788
      5          1           0       -1.968073    2.236911   -1.654926
      6          1           0       -1.820315    0.136260    0.428020
      7          6           0        0.932630    0.140732    1.142794
      8          1           0        1.991622    0.293819    1.141387
      9          1           0        0.526401    0.466530    2.077531
     10          6           0        0.630111   -1.356316    0.945493
     11          1           0       -0.428880   -1.509403    0.946899
     12          1           0        1.036341   -1.682114    0.010756
     13          6           0        1.267080   -2.164129    2.091489
     14          1           0        2.326071   -2.011042    2.090083
     15          1           0        0.860850   -1.838332    3.026227
     16          6           0        0.964560   -3.661178    1.894188
     17          1           0        1.370790   -3.986975    0.959451
     18          1           0        1.407129   -4.222451    2.690433
     19          1           0       -0.094431   -3.814265    1.895595
     20          6           0       -0.992839    4.423095    0.365211
     21          1           0       -1.670749    4.834131   -0.353390
     22          1           0       -1.463237    4.398444    1.325950
     23          1           0       -0.113405    5.030631    0.414160
     24          7           0        0.324615    0.911827    0.048888
     25          7           0       -0.623453    3.057617   -0.034691
     26         17           0        2.070867    3.194117    1.853513
 ---------------------------------------------------------------------
                    Distance matrix (angstroms):
                    1          2          3          4          5
     1  C    0.000000
     2  C    2.289418   0.000000
     3  C    1.487154   2.182028   0.000000
     4  H    3.314133   1.070000   3.214062   0.000000
     5  H    2.311947   3.115797   1.070000   4.094001   0.000000
     6  H    1.070000   3.265454   2.327756   4.242309   2.961964
     7  C    2.475376   2.492297   3.601478   2.846783   4.542608
     8  H    3.384728   2.749930   4.300490   2.721864   5.222467
     9  H    2.692110   2.688163   3.801193   2.983938   4.825753
    10  C    2.986821   3.845955   4.365963   4.332184   5.140430
    11  H    2.642071   4.102332   4.114170   4.780354   4.813884
    12  H    3.345066   4.143070   4.579470   4.621303   5.211502
    13  C    4.391096   5.006081   5.789277   5.278895   6.623519
    14  H    4.960910   5.139204   6.248144   5.212591   7.107030
    15  H    4.516824   5.106420   5.915585   5.354106   6.820822
    16  C    5.329128   6.321783   6.777240   6.697361   7.482246
    17  H    5.537867   6.506812   6.916711   6.887908   7.531251
    18  H    6.284064   7.140830   7.737247   7.420772   8.485134
    19  H    5.143835   6.480949   6.617836   6.995614   7.261781
    20  C    3.592598   2.503962   2.603276   2.852346   3.132322
    21  H    4.032307   3.301432   2.765849   3.753630   2.920265
    22  H    3.797865   2.996875   3.088063   3.325481   3.716545
    23  H    4.324068   2.688266   3.405635   2.628380   3.940277
    24  N    1.473669   1.530608   2.259968   2.313600   3.148849
    25  N    2.267279   1.322636   1.429433   2.122878   2.259806
    26  Cl   4.388693   2.383462   4.486204   1.474996   5.434927
                    6          7          8          9         10
     6  H    0.000000
     7  C    2.844227   0.000000
     8  H    3.881311   1.070000   0.000000
     9  H    2.887393   1.070000   1.747303   0.000000
    10  C    2.915502   1.540000   2.148263   2.148263   0.000000
    11  H    2.216649   2.148263   3.024610   2.468846   1.070000
    12  H    3.411902   2.148263   2.468846   3.024610   1.070000
    13  C    4.194154   2.514809   2.732978   2.732978   1.540000
    14  H    4.956398   2.732978   2.514809   3.062243   2.148263
    15  H    4.223546   2.732978   3.062243   2.514809   2.148263
    16  C    4.932111   3.875582   4.154945   4.154945   2.514809
    17  H    5.240863   4.154945   4.329403   4.668704   2.732978
    18  H    5.876502   4.653783   4.810184   4.810184   3.444314
    19  H    4.554020   4.154945   4.668704   4.329403   2.732978
    20  C    4.366419   4.759275   5.153676   4.571055   6.030945
    21  H    4.764762   5.571727   6.021773   5.460109   6.730727
    22  H    4.370354   4.888951   5.368246   4.470289   6.135481
    23  H    5.183493   5.053336   5.234251   4.899712   6.451994
    24  N    2.312135   1.470000   2.086720   2.086720   2.457987
    25  N    3.190753   3.509428   3.982506   3.535163   4.692013
    26  Cl   5.150128   3.335245   2.987496   3.142498   4.858675
                   11         12         13         14         15
    11  H    0.000000
    12  H    1.747303   0.000000
    13  C    2.148263   2.148263   0.000000
    14  H    3.024610   2.468846   1.070000   0.000000
    15  H    2.468846   3.024610   1.070000   1.747303   0.000000
    16  C    2.732978   2.732978   1.540000   2.148263   2.148263
    17  H    3.062243   2.514809   2.148263   2.468846   3.024610
    18  H    3.710993   3.710993   2.148263   2.468846   2.468846
    19  H    2.514809   3.062243   2.148263   3.024610   2.468846
    20  C    5.987566   6.443352   7.174873   7.442343   7.051428
    21  H    6.593437   7.065577   7.973953   8.294669   7.896364
    22  H    6.009679   6.704536   7.148990   7.484937   6.869476
    23  H    6.569276   6.822433   7.515567   7.638385   7.413145
    24  N    2.690081   2.690081   3.810770   4.088455   4.088455
    25  N    4.675367   5.022153   5.946545   6.237440   5.961769
    26  Cl   5.403128   5.314473   5.423422   5.216779   5.307065
                   16         17         18         19         20
    16  C    0.000000
    17  H    1.070000   0.000000
    18  H    1.070000   1.747303   0.000000
    19  H    1.070000   1.747303   1.747303   0.000000
    20  C    8.457225   8.756092   9.268871   8.426347   0.000000
    21  H    9.174243   9.422655  10.037921   9.073999   1.070000
    22  H    8.436504   8.858967   9.188071   8.345461   1.070000
    23  H    8.882569   9.155184   9.649506   8.968121   1.070000
    24  N    4.972628   5.091352   5.874555   5.091352   3.763609
    25  N    7.168303   7.388613   8.034236   7.157418   1.470000
    26  Cl   6.944108   7.270319   7.493094   7.335373   3.621012
                   21         22         23         24         25
    21  H    0.000000
    22  H    1.747303   0.000000
    23  H    1.747303   1.747303   0.000000
    24  N    4.419024   4.121141   4.158105   0.000000
    25  N    2.086720   2.086720   2.086720   2.347389   0.000000
    26  Cl   4.643249   3.770759   3.196180   3.393364   3.292918
                   26
    26  Cl   0.000000
 Stoichiometry    C8H15ClN2
 Framework group  C1[X(C8H15ClN2)]
 Deg. of freedom    72
 Full point group                 C1      NOp   1
 Largest Abelian subgroup         C1      NOp   1
 Largest concise Abelian subgroup C1      NOp   1
                         Standard orientation:                         
 ---------------------------------------------------------------------
 Center     Atomic      Atomic             Coordinates (Angstroms)
 Number     Number       Type             X           Y           Z
 ---------------------------------------------------------------------
      1          6           0       -0.213466   -1.799778    0.175660
      2          6           0       -1.427696    0.026686   -0.480929
      3          6           0       -1.615182   -2.128618   -0.196741
      4          1           0       -1.674733    1.047586   -0.684975
      5          1           0       -1.999950   -3.032958   -0.619853
      6          1           0        0.453126   -2.281329    0.860251
      7          6           0        1.022012    0.323220   -0.130870
      8          1           0        1.041889    1.210822   -0.728088
      9          1           0        0.818560    0.582720    0.887053
     10          6           0        2.387135   -0.384294   -0.217252
     11          1           0        2.367258   -1.271895    0.379965
     12          1           0        2.590587   -0.643793   -1.235176
     13          6           0        3.488049    0.559160    0.301867
     14          1           0        3.507926    1.446761   -0.295351
     15          1           0        3.284597    0.818660    1.319790
     16          6           0        4.853172   -0.148354    0.215484
     17          1           0        5.056624   -0.407854   -0.802439
     18          1           0        5.618093    0.507162    0.576171
     19          1           0        4.833295   -1.035955    0.812702
     20          6           0       -3.580895   -0.628161    0.616677
     21          1           0       -4.222991   -1.466549    0.444290
     22          1           0       -3.450064   -0.489655    1.669577
     23          1           0       -4.020400    0.250712    0.193217
     24          7           0       -0.028860   -0.577349   -0.626393
     25          7           0       -2.274696   -0.874063   -0.011239
     26         17           0       -1.621041    2.353310   -0.001004
 ---------------------------------------------------------------------
 Rotational constants (GHZ):      1.3771816      0.4670601      0.3623751
 Standard basis: 6-311+G(d) (5D, 7F)
 There are   295 symmetry adapted basis functions of A   symmetry.
 Integral buffers will be    131072 words long.
 Raffenetti 2 integral format.
 Two-electron integral symmetry is turned on.
   295 basis functions,   488 primitive gaussians,   306 cartesian basis functions
    47 alpha electrons       47 beta electrons
       nuclear repulsion energy       702.0267959014 Hartrees.
 NAtoms=   26 NActive=   26 NUniq=   26 SFac= 7.50D-01 NAtFMM=   80 NAOKFM=F Big=F
 One-electron integrals computed using PRISM.
 NBasis=   295 RedAO= T  NBF=   295
 NBsUse=   295 1.00D-06 NBFU=   295
 Harris functional with IExCor= 1009 diagonalized for initial guess.
 ExpMin= 4.38D-02 ExpMax= 1.06D+05 ExpMxC= 3.62D+03 IAcc=2 IRadAn=         0 AccDes= 0.00D+00
 HarFok:  IExCor= 1009 AccDes= 0.00D+00 IRadAn=         0 IDoV= 1
 ScaDFX=  1.000000  1.000000  1.000000  1.000000
 FoFCou: FMM=F IPFlag=           0 FMFlag=      100000 FMFlg1=           0
         NFxFlg=           0 DoJE=T BraDBF=F KetDBF=T FulRan=T
         Omega=  0.000000  0.000000  1.000000  0.000000  0.000000 ICntrl=     500 IOpCl=  0
         NMat0=    1 NMatS0=    1 NMatT0=    0 NMatD0=    1 NMtDS0=    0 NMtDT0=    0
         I1Cent=           4 NGrid=           0.
 Petite list used in FoFCou.
 Initial guess orbital symmetries:
       Occupied  (A) (A) (A) (A) (A) (A) (A) (A) (A) (A) (A) (A)
                 (A) (A) (A) (A) (A) (A) (A) (A) (A) (A) (A) (A)
                 (A) (A) (A) (A) (A) (A) (A) (A) (A) (A) (A) (A)
                 (A) (A) (A) (A) (A) (A) (A) (A) (A) (A) (A)
       Virtual   (A) (A) (A) (A) (A) (A) (A) (A) (A) (A) (A) (A)
                 (A) (A) (A) (A) (A) (A) (A) (A) (A) (A) (A) (A)
                 (A) (A) (A) (A) (A) (A) (A) (A) (A) (A) (A) (A)
                 (A) (A) (A) (A) (A) (A) (A) (A) (A) (A) (A) (A)
                 (A) (A) (A) (A) (A) (A) (A) (A) (A) (A) (A) (A)
                 (A) (A) (A) (A) (A) (A) (A) (A) (A) (A) (A) (A)
                 (A) (A) (A) (A) (A) (A) (A) (A) (A) (A) (A) (A)
                 (A) (A) (A) (A) (A) (A) (A) (A) (A) (A) (A) (A)
                 (A) (A) (A) (A) (A) (A) (A) (A) (A) (A) (A) (A)
                 (A) (A) (A) (A) (A) (A) (A) (A) (A) (A) (A) (A)
                 (A) (A) (A) (A) (A) (A) (A) (A) (A) (A) (A) (A)
                 (A) (A) (A) (A) (A) (A) (A) (A) (A) (A) (A) (A)
                 (A) (A) (A) (A) (A) (A) (A) (A) (A) (A) (A) (A)
                 (A) (A) (A) (A) (A) (A) (A) (A) (A) (A) (A) (A)
                 (A) (A) (A) (A) (A) (A) (A) (A) (A) (A) (A) (A)
                 (A) (A) (A) (A) (A) (A) (A) (A) (A) (A) (A) (A)
                 (A) (A) (A) (A) (A) (A) (A) (A) (A) (A) (A) (A)
                 (A) (A) (A) (A) (A) (A) (A) (A) (A) (A) (A) (A)
                 (A) (A) (A) (A) (A) (A) (A) (A) (A) (A) (A) (A)
                 (A) (A) (A) (A) (A) (A) (A) (A) (A) (A) (A) (A)
                 (A) (A) (A) (A) (A) (A) (A) (A)
 The electronic state of the initial guess is 1-A.
 Requested convergence on RMS density matrix=1.00D-08 within 128 cycles.
 Requested convergence on MAX density matrix=1.00D-06.
 Requested convergence on             energy=1.00D-06.
 No special actions if energy rises.
 SCF Done:  E(RM062X) =  -883.264992443     A.U. after   16 cycles
             Convg  =    0.7116D-08             -V/T =  2.0025

 **********************************************************************

            Population analysis using the SCF density.

 **********************************************************************

 Orbital symmetries:
       Occupied  (A) (A) (A) (A) (A) (A) (A) (A) (A) (A) (A) (A)
                 (A) (A) (A) (A) (A) (A) (A) (A) (A) (A) (A) (A)
                 (A) (A) (A) (A) (A) (A) (A) (A) (A) (A) (A) (A)
                 (A) (A) (A) (A) (A) (A) (A) (A) (A) (A) (A)
       Virtual   (A) (A) (A) (A) (A) (A) (A) (A) (A) (A) (A) (A)
                 (A) (A) (A) (A) (A) (A) (A) (A) (A) (A) (A) (A)
                 (A) (A) (A) (A) (A) (A) (A) (A) (A) (A) (A) (A)
                 (A) (A) (A) (A) (A) (A) (A) (A) (A) (A) (A) (A)
                 (A) (A) (A) (A) (A) (A) (A) (A) (A) (A) (A) (A)
                 (A) (A) (A) (A) (A) (A) (A) (A) (A) (A) (A) (A)
                 (A) (A) (A) (A) (A) (A) (A) (A) (A) (A) (A) (A)
                 (A) (A) (A) (A) (A) (A) (A) (A) (A) (A) (A) (A)
                 (A) (A) (A) (A) (A) (A) (A) (A) (A) (A) (A) (A)
                 (A) (A) (A) (A) (A) (A) (A) (A) (A) (A) (A) (A)
                 (A) (A) (A) (A) (A) (A) (A) (A) (A) (A) (A) (A)
                 (A) (A) (A) (A) (A) (A) (A) (A) (A) (A) (A) (A)
                 (A) (A) (A) (A) (A) (A) (A) (A) (A) (A) (A) (A)
                 (A) (A) (A) (A) (A) (A) (A) (A) (A) (A) (A) (A)
                 (A) (A) (A) (A) (A) (A) (A) (A) (A) (A) (A) (A)
                 (A) (A) (A) (A) (A) (A) (A) (A) (A) (A) (A) (A)
                 (A) (A) (A) (A) (A) (A) (A) (A) (A) (A) (A) (A)
                 (A) (A) (A) (A) (A) (A) (A) (A) (A) (A) (A) (A)
                 (A) (A) (A) (A) (A) (A) (A) (A) (A) (A) (A) (A)
                 (A) (A) (A) (A) (A) (A) (A) (A) (A) (A) (A) (A)
                 (A) (A) (A) (A) (A) (A) (A) (A)
 The electronic state is 1-A.
 Alpha  occ. eigenvalues -- -102.54717 -14.85316 -14.82458 -10.63502 -10.62413
 Alpha  occ. eigenvalues --  -10.62226 -10.60582 -10.57405 -10.54065 -10.53519
 Alpha  occ. eigenvalues --  -10.52248  -9.69363  -7.41488  -7.41393  -7.41339
 Alpha  occ. eigenvalues --   -1.15979  -1.04768  -0.91497  -0.88445  -0.86926
 Alpha  occ. eigenvalues --   -0.82309  -0.81478  -0.74999  -0.70727  -0.67978
 Alpha  occ. eigenvalues --   -0.67342  -0.63427  -0.59478  -0.57771  -0.57104
 Alpha  occ. eigenvalues --   -0.55220  -0.53278  -0.52650  -0.51285  -0.49490
 Alpha  occ. eigenvalues --   -0.49290  -0.46498  -0.45620  -0.42954  -0.41093
 Alpha  occ. eigenvalues --   -0.41042  -0.39349  -0.36346  -0.30684  -0.30000
 Alpha  occ. eigenvalues --   -0.28447  -0.24563
 Alpha virt. eigenvalues --   -0.05643  -0.01848  -0.00195   0.00781   0.02300
 Alpha virt. eigenvalues --    0.02449   0.03379   0.03566   0.04135   0.04942
 Alpha virt. eigenvalues --    0.05349   0.05740   0.06650   0.06876   0.07248
 Alpha virt. eigenvalues --    0.08296   0.08709   0.09069   0.09784   0.10468
 Alpha virt. eigenvalues --    0.10837   0.11875   0.11988   0.12467   0.13032
 Alpha virt. eigenvalues --    0.13633   0.14378   0.14853   0.15279   0.15680
 Alpha virt. eigenvalues --    0.16419   0.17130   0.17507   0.17663   0.18262
 Alpha virt. eigenvalues --    0.18723   0.19011   0.19696   0.20452   0.21097
 Alpha virt. eigenvalues --    0.21306   0.21937   0.22624   0.23081   0.23342
 Alpha virt. eigenvalues --    0.23876   0.24091   0.24695   0.25018   0.25747
 Alpha virt. eigenvalues --    0.26019   0.26979   0.27147   0.27746   0.28281
 Alpha virt. eigenvalues --    0.28716   0.29007   0.29913   0.30508   0.31105
 Alpha virt. eigenvalues --    0.31457   0.31731   0.33158   0.33746   0.34616
 Alpha virt. eigenvalues --    0.35517   0.36496   0.37868   0.38204   0.40359
 Alpha virt. eigenvalues --    0.41620   0.43801   0.44577   0.45911   0.47061
 Alpha virt. eigenvalues --    0.49013   0.49942   0.50862   0.52083   0.53908
 Alpha virt. eigenvalues --    0.54044   0.55748   0.56471   0.57506   0.60006
 Alpha virt. eigenvalues --    0.60854   0.61089   0.62006   0.63091   0.64266
 Alpha virt. eigenvalues --    0.64774   0.65827   0.66623   0.67885   0.68322
 Alpha virt. eigenvalues --    0.68795   0.69889   0.70420   0.71673   0.72235
 Alpha virt. eigenvalues --    0.72747   0.73559   0.73788   0.74760   0.76078
 Alpha virt. eigenvalues --    0.76225   0.78002   0.78765   0.79395   0.81033
 Alpha virt. eigenvalues --    0.82061   0.82504   0.85600   0.87138   0.90101
 Alpha virt. eigenvalues --    0.91142   0.92377   0.94608   0.95568   0.97333
 Alpha virt. eigenvalues --    0.98926   0.99172   1.01620   1.03895   1.04980
 Alpha virt. eigenvalues --    1.06563   1.07041   1.07979   1.11213   1.12972
 Alpha virt. eigenvalues --    1.15492   1.18747   1.22041   1.25014   1.25639
 Alpha virt. eigenvalues --    1.27530   1.32120   1.34223   1.37485   1.40999
 Alpha virt. eigenvalues --    1.45877   1.46409   1.48856   1.50239   1.53593
 Alpha virt. eigenvalues --    1.56411   1.56768   1.58565   1.60220   1.61254
 Alpha virt. eigenvalues --    1.62218   1.63210   1.65078   1.65824   1.66447
 Alpha virt. eigenvalues --    1.68146   1.71619   1.73811   1.74927   1.76803
 Alpha virt. eigenvalues --    1.77993   1.79805   1.81514   1.83000   1.84137
 Alpha virt. eigenvalues --    1.85229   1.86531   1.88957   1.92374   1.94808
 Alpha virt. eigenvalues --    1.98335   2.01867   2.12841   2.17895   2.22345
 Alpha virt. eigenvalues --    2.26746   2.31320   2.32652   2.38373   2.40565
 Alpha virt. eigenvalues --    2.42396   2.45106   2.47476   2.48199   2.51074
 Alpha virt. eigenvalues --    2.54877   2.55068   2.55937   2.57288   2.58139
 Alpha virt. eigenvalues --    2.60468   2.60722   2.61577   2.63355   2.63760
 Alpha virt. eigenvalues --    2.65628   2.66022   2.69615   2.72456   2.74374
 Alpha virt. eigenvalues --    2.80605   2.84216   2.96374   2.98459   3.01240
 Alpha virt. eigenvalues --    3.02577   3.04642   3.06581   3.13057   3.17520
 Alpha virt. eigenvalues --    3.21847   3.23112   3.26643   3.27924   3.32082
 Alpha virt. eigenvalues --    3.33127   3.36562   3.42631   3.44080   3.47146
 Alpha virt. eigenvalues --    3.49095   3.51514   3.59806   3.73065   3.83483
 Alpha virt. eigenvalues --    3.95052   4.01196   4.08060   4.23586   4.50487
 Alpha virt. eigenvalues --    4.74264   4.78682   4.90134  10.03537  23.55024
 Alpha virt. eigenvalues --   23.57763  23.61741  23.70422  23.75751  23.78500
 Alpha virt. eigenvalues --   23.79897  23.80706  26.09040  26.15715  26.33279
 Alpha virt. eigenvalues --   35.52254  35.55437 216.14057
          Condensed to atoms (all electrons):
              1          2          3          4          5          6
     1  C    6.134974  -0.299108   0.129290  -0.010391   0.062260   0.315945
     2  C   -0.299108   8.101069   0.194669  -0.135261   0.009299   0.002779
     3  C    0.129290   0.194669   6.230661   0.001693   0.296367   0.018848
     4  H   -0.010391  -0.135261   0.001693   0.533591   0.000198   0.000140
     5  H    0.062260   0.009299   0.296367   0.000198   0.395329  -0.000710
     6  H    0.315945   0.002779   0.018848   0.000140  -0.000710   0.392603
     7  C   -0.419995  -0.573529  -0.072316   0.137585  -0.002570   0.053115
     8  H   -0.003118  -0.000342  -0.004472  -0.000839   0.000023  -0.000047
     9  H    0.014584  -0.008861   0.009234  -0.001375   0.000030   0.001683
    10  C    0.174181  -0.274739  -0.090230  -0.005298   0.004094  -0.041006
    11  H    0.012582   0.012178  -0.003868  -0.000102  -0.000004   0.000908
    12  H    0.010340  -0.003729   0.000801   0.000014  -0.000006   0.000943
    13  C   -0.037632  -0.027249   0.008364   0.002267  -0.000083   0.006712
    14  H   -0.004186  -0.000626  -0.001393   0.000005   0.000000  -0.000024
    15  H    0.006294  -0.002733   0.001077   0.000037   0.000000   0.000097
    16  C   -0.003677  -0.013424  -0.006707  -0.000371   0.000030  -0.000405
    17  H    0.002200  -0.000015   0.000334   0.000000   0.000000   0.000006
    18  H   -0.000051   0.000109  -0.000038   0.000000   0.000000   0.000001
    19  H   -0.002767  -0.000148  -0.000397   0.000000   0.000000  -0.000027
    20  C   -0.013074  -0.125056  -0.109131   0.011957  -0.001039   0.001582
    21  H    0.010208  -0.005806   0.020430  -0.000622  -0.000566   0.000053
    22  H    0.019412  -0.020218  -0.018169  -0.001314   0.000194  -0.000214
    23  H   -0.009761   0.023293   0.001957   0.001996  -0.000015   0.000013
    24  N    0.305480   0.011544  -0.232208  -0.006210   0.013131  -0.053683
    25  N   -0.241801   0.172057   0.177966   0.032263  -0.048542   0.017266
    26  Cl   0.115187  -0.447934  -0.091190   0.067809   0.001426  -0.000198
              7          8          9         10         11         12
     1  C   -0.419995  -0.003118   0.014584   0.174181   0.012582   0.010340
     2  C   -0.573529  -0.000342  -0.008861  -0.274739   0.012178  -0.003729
     3  C   -0.072316  -0.004472   0.009234  -0.090230  -0.003868   0.000801
     4  H    0.137585  -0.000839  -0.001375  -0.005298  -0.000102   0.000014
     5  H   -0.002570   0.000023   0.000030   0.004094  -0.000004  -0.000006
     6  H    0.053115  -0.000047   0.001683  -0.041006   0.000908   0.000943
     7  C    7.104863   0.402021   0.423887  -0.750403   0.017848  -0.041312
     8  H    0.402021   0.377492  -0.024728   0.006301   0.004258  -0.003630
     9  H    0.423887  -0.024728   0.412713  -0.080882  -0.005837   0.004377
    10  C   -0.750403   0.006301  -0.080882   7.334343   0.350452   0.429521
    11  H    0.017848   0.004258  -0.005837   0.350452   0.485580  -0.032461
    12  H   -0.041312  -0.003630   0.004377   0.429521  -0.032461   0.413459
    13  C    0.301137  -0.015856  -0.021795  -0.472783  -0.048210  -0.055565
    14  H    0.002462   0.001071  -0.000560  -0.062871   0.006156  -0.006681
    15  H    0.002290   0.000572   0.002575  -0.035856  -0.006395   0.005580
    16  C   -0.251895   0.007485   0.001772   0.152406  -0.005136  -0.002115
    17  H    0.007184   0.000098  -0.000006  -0.033506  -0.000003   0.004162
    18  H    0.006185  -0.000030  -0.000015   0.061692  -0.000309  -0.000203
    19  H   -0.001702  -0.000060   0.000020  -0.044916   0.003083  -0.000604
    20  C    0.012148  -0.000507   0.001413  -0.023086  -0.000412   0.000303
    21  H   -0.002102   0.000000   0.000029  -0.000948   0.000000   0.000000
    22  H   -0.002338   0.000007   0.000005   0.000736  -0.000002   0.000000
    23  H    0.005501  -0.000006   0.000045   0.000081   0.000000   0.000000
    24  N    0.129234  -0.042683  -0.061792   0.052199  -0.013068   0.003197
    25  N    0.074881  -0.004890   0.014214  -0.090639  -0.001149   0.001927
    26  Cl  -0.044838  -0.005006   0.015861  -0.065040  -0.000267   0.000698
             13         14         15         16         17         18
     1  C   -0.037632  -0.004186   0.006294  -0.003677   0.002200  -0.000051
     2  C   -0.027249  -0.000626  -0.002733  -0.013424  -0.000015   0.000109
     3  C    0.008364  -0.001393   0.001077  -0.006707   0.000334  -0.000038
     4  H    0.002267   0.000005   0.000037  -0.000371   0.000000   0.000000
     5  H   -0.000083   0.000000   0.000000   0.000030   0.000000   0.000000
     6  H    0.006712  -0.000024   0.000097  -0.000405   0.000006   0.000001
     7  C    0.301137   0.002462   0.002290  -0.251895   0.007184   0.006185
     8  H   -0.015856   0.001071   0.000572   0.007485   0.000098  -0.000030
     9  H   -0.021795  -0.000560   0.002575   0.001772  -0.000006  -0.000015
    10  C   -0.472783  -0.062871  -0.035856   0.152406  -0.033506   0.061692
    11  H   -0.048210   0.006156  -0.006395  -0.005136  -0.000003  -0.000309
    12  H   -0.055565  -0.006681   0.005580  -0.002115   0.004162  -0.000203
    13  C    6.199930   0.443907   0.409548  -0.202808   0.006971  -0.088928
    14  H    0.443907   0.441418  -0.034073  -0.046619  -0.007346  -0.003769
    15  H    0.409548  -0.034073   0.452891  -0.059372   0.006618  -0.003968
    16  C   -0.202808  -0.046619  -0.059372   6.334503   0.359694   0.376052
    17  H    0.006971  -0.007346   0.006618   0.359694   0.453705  -0.024264
    18  H   -0.088928  -0.003769  -0.003968   0.376052  -0.024264   0.433358
    19  H    0.017861   0.006212  -0.008312   0.377057  -0.035218  -0.024818
    20  C   -0.000873  -0.000050   0.000117  -0.000668   0.000003   0.000001
    21  H   -0.000031   0.000000   0.000000  -0.000003   0.000000   0.000000
    22  H    0.000067   0.000000   0.000000   0.000008   0.000000   0.000000
    23  H    0.000040   0.000000   0.000000   0.000002   0.000000   0.000000
    24  N   -0.053358  -0.002450   0.000163  -0.037534   0.000104   0.000291
    25  N    0.006669  -0.000234   0.000354  -0.001233   0.000008   0.000002
    26  Cl   0.010575  -0.000209   0.000106   0.001617   0.000006   0.000000
             19         20         21         22         23         24
     1  C   -0.002767  -0.013074   0.010208   0.019412  -0.009761   0.305480
     2  C   -0.000148  -0.125056  -0.005806  -0.020218   0.023293   0.011544
     3  C   -0.000397  -0.109131   0.020430  -0.018169   0.001957  -0.232208
     4  H    0.000000   0.011957  -0.000622  -0.001314   0.001996  -0.006210
     5  H    0.000000  -0.001039  -0.000566   0.000194  -0.000015   0.013131
     6  H   -0.000027   0.001582   0.000053  -0.000214   0.000013  -0.053683
     7  C   -0.001702   0.012148  -0.002102  -0.002338   0.005501   0.129234
     8  H   -0.000060  -0.000507   0.000000   0.000007  -0.000006  -0.042683
     9  H    0.000020   0.001413   0.000029   0.000005   0.000045  -0.061792
    10  C   -0.044916  -0.023086  -0.000948   0.000736   0.000081   0.052199
    11  H    0.003083  -0.000412   0.000000  -0.000002   0.000000  -0.013068
    12  H   -0.000604   0.000303   0.000000   0.000000   0.000000   0.003197
    13  C    0.017861  -0.000873  -0.000031   0.000067   0.000040  -0.053358
    14  H    0.006212  -0.000050   0.000000   0.000000   0.000000  -0.002450
    15  H   -0.008312   0.000117   0.000000   0.000000   0.000000   0.000163
    16  C    0.377057  -0.000668  -0.000003   0.000008   0.000002  -0.037534
    17  H   -0.035218   0.000003   0.000000   0.000000   0.000000   0.000104
    18  H   -0.024818   0.000001   0.000000   0.000000   0.000000   0.000291
    19  H    0.460939  -0.000003   0.000000   0.000000   0.000000  -0.000240
    20  C   -0.000003   5.738656   0.392097   0.412283   0.396501  -0.026689
    21  H    0.000000   0.392097   0.447432  -0.030914  -0.020717  -0.002232
    22  H    0.000000   0.412283  -0.030914   0.398422  -0.023693  -0.000577
    23  H    0.000000   0.396501  -0.020717  -0.023693   0.387936   0.000901
    24  N   -0.000240  -0.026689  -0.002232  -0.000577   0.000901   6.973154
    25  N   -0.000008   0.016303  -0.065853  -0.038253  -0.060346  -0.182642
    26  Cl  -0.000004   0.041413   0.000454   0.005710  -0.006391  -0.037987
             25         26
     1  C   -0.241801   0.115187
     2  C    0.172057  -0.447934
     3  C    0.177966  -0.091190
     4  H    0.032263   0.067809
     5  H   -0.048542   0.001426
     6  H    0.017266  -0.000198
     7  C    0.074881  -0.044838
     8  H   -0.004890  -0.005006
     9  H    0.014214   0.015861
    10  C   -0.090639  -0.065040
    11  H   -0.001149  -0.000267
    12  H    0.001927   0.000698
    13  C    0.006669   0.010575
    14  H   -0.000234  -0.000209
    15  H    0.000354   0.000106
    16  C   -0.001233   0.001617
    17  H    0.000008   0.000006
    18  H    0.000002   0.000000
    19  H   -0.000008  -0.000004
    20  C    0.016303   0.041413
    21  H   -0.065853   0.000454
    22  H   -0.038253   0.005710
    23  H   -0.060346  -0.006391
    24  N   -0.182642  -0.037987
    25  N    6.790117   0.051770
    26  Cl   0.051770  17.817469
 Mulliken atomic charges:
              1
     1  C   -0.267377
     2  C   -0.588219
     3  C   -0.461574
     4  H    0.372230
     5  H    0.271154
     6  H    0.283617
     7  C   -0.517342
     8  H    0.306885
     9  H    0.303410
    10  C   -0.493803
    11  H    0.224179
    12  H    0.270984
    13  C   -0.388880
    14  H    0.269857
    15  H    0.262390
    16  C   -0.978658
    17  H    0.259267
    18  H    0.268706
    19  H    0.254051
    20  C   -0.724188
    21  H    0.259093
    22  H    0.298849
    23  H    0.302663
    24  N    0.263952
    25  N    0.379792
    26  Cl  -0.431037
 Sum of Mulliken atomic charges =   0.00000
 Mulliken charges with hydrogens summed into heavy atoms:
              1
     1  C    0.016241
     2  C   -0.215990
     3  C   -0.190419
     7  C    0.092952
    10  C    0.001359
    13  C    0.143368
    16  C   -0.196633
    20  C    0.136416
    24  N    0.263952
    25  N    0.379792
    26  Cl  -0.431037
 Sum of Mulliken charges with hydrogens summed into heavy atoms =   0.00000
 Electronic spatial extent (au):  <R**2>=           3067.4980
 Charge=              0.0000 electrons
 Dipole moment (field-independent basis, Debye):
    X=              0.2984    Y=             -7.4010    Z=              0.7333  Tot=              7.4432
 Quadrupole moment (field-independent basis, Debye-Ang):
   XX=            -64.1296   YY=            -89.7825   ZZ=            -77.3326
   XY=             15.4212   XZ=             -0.2592   YZ=             -1.8072
 Traceless Quadrupole moment (field-independent basis, Debye-Ang):
   XX=             12.9519   YY=            -12.7009   ZZ=             -0.2511
   XY=             15.4212   XZ=             -0.2592   YZ=             -1.8072
 Octapole moment (field-independent basis, Debye-Ang**2):
  XXX=            -56.0378  YYY=            -57.2536  ZZZ=              3.3756  XYY=             19.3751
  XXY=            -26.4234  XXZ=              5.6941  XZZ=             -0.7090  YZZ=              0.4510
  YYZ=             -3.3315  XYZ=             -3.7660
 Hexadecapole moment (field-independent basis, Debye-Ang**3):
 XXXX=          -2895.2390 YYYY=          -1065.5571 ZZZZ=           -174.5766 XXXY=            113.1317
 XXXZ=            -32.7977 YYYX=            105.3803 YYYZ=              5.0426 ZZZX=             -9.4302
 ZZZY=             -2.2094 XXYY=           -701.5500 XXZZ=           -528.4066 YYZZ=           -197.5001
 XXYZ=              1.0229 YYXZ=             20.3081 ZZXY=              2.1165
 N-N= 7.020267959014D+02 E-N=-3.480511329327D+03  KE= 8.810516937653D+02
 Calling FoFJK, ICntrl=      2127 FMM=F ISym2X=0 I1Cent= 0 IOpClX= 0 NMat=1 NMatS=1 NMatT=0.
 ***** Axes restored to original set *****
 -------------------------------------------------------------------
 Center     Atomic                   Forces (Hartrees/Bohr)
 Number     Number              X              Y              Z
 -------------------------------------------------------------------
      1        6           0.040960691    0.069657199   -0.093064140
      2        6          -0.060102109   -0.068248278   -0.063901054
      3        6          -0.025879192   -0.063704119    0.095327544
      4        1           0.009642875   -0.002687166   -0.032698108
      5        1          -0.019536226    0.014808600    0.006258144
      6        1           0.001461592   -0.017864201   -0.013490818
      7        6          -0.003757454   -0.024382555   -0.012951381
      8        1           0.012923701    0.005739246    0.000326314
      9        1          -0.001417390    0.006231354    0.015427292
     10        6           0.019900712    0.016879209    0.024512506
     11        1          -0.015239275   -0.005748603   -0.001799263
     12        1           0.003355024   -0.004848480   -0.015483010
     13        6          -0.018781727   -0.014133827   -0.025574088
     14        1           0.015485512    0.004092674    0.002667231
     15        1          -0.003076182    0.006034134    0.015009695
     16        6           0.007758697    0.024914252    0.007466845
     17        1           0.004688029   -0.007573350   -0.012674064
     18        1           0.004576712   -0.011464038    0.009293262
     19        1          -0.014706438   -0.005485387   -0.000414448
     20        6           0.011713804   -0.010443870   -0.017331624
     21        1          -0.008580368    0.003104609   -0.009979984
     22        1          -0.005580525   -0.004812138    0.012476108
     23        1           0.011748433    0.006100070    0.001603835
     24        7          -0.057147030    0.070324910    0.056248180
     25        7           0.026424647   -0.022034166   -0.046978600
     26       17           0.063163484    0.035543921    0.099723624
 -------------------------------------------------------------------
 Cartesian Forces:  Max     0.099723624 RMS     0.032232487

 GradGradGradGradGradGradGradGradGradGradGradGradGradGradGradGradGradGrad
 Berny optimization.
 Internal  Forces:  Max     0.122430236 RMS     0.019328961
 Search for a local minimum.
 Step number   1 out of a maximum of  143
 All quantities printed in internal units (Hartrees-Bohrs-Radians)
 Mixed Optimization -- RFO/linear search
 Second derivative matrix not updated -- first step.
     Eigenvalues ---    0.00237   0.00237   0.00237   0.00499   0.00766
     Eigenvalues ---    0.00766   0.00824   0.01016   0.01147   0.01289
     Eigenvalues ---    0.01662   0.03062   0.03840   0.03840   0.04025
     Eigenvalues ---    0.04502   0.04896   0.04896   0.05496   0.05720
     Eigenvalues ---    0.05720   0.07537   0.07537   0.07655   0.07655
     Eigenvalues ---    0.08860   0.11701   0.11701   0.12453   0.13017
     Eigenvalues ---    0.15696   0.15969   0.15981   0.16000   0.16000
     Eigenvalues ---    0.16000   0.16000   0.16000   0.16000   0.18011
     Eigenvalues ---    0.19036   0.21443   0.21948   0.21948   0.21985
     Eigenvalues ---    0.24960   0.25000   0.27947   0.28519   0.28519
     Eigenvalues ---    0.28519   0.31718   0.32677   0.35740   0.35740
     Eigenvalues ---    0.37230   0.37230   0.37230   0.37230   0.37230
     Eigenvalues ---    0.37230   0.37230   0.37230   0.37230   0.37230
     Eigenvalues ---    0.37230   0.37230   0.37230   0.37230   0.37230
     Eigenvalues ---    0.38663   0.572741000.000001000.000001000.00000
     Eigenvalues --- 1000.000001000.000001000.000001000.000001000.00000
     Eigenvalues --- 1000.000001000.000001000.000001000.000001000.00000
     Eigenvalues --- 1000.000001000.000001000.000001000.000001000.00000
     Eigenvalues --- 1000.000001000.000001000.000001000.000001000.00000
     Eigenvalues --- 1000.000001000.000001000.000001000.000001000.00000
     Eigenvalues --- 1000.000001000.000001000.000001000.000001000.00000
     Eigenvalues --- 1000.000001000.000001000.000001000.000001000.00000
     Eigenvalues --- 1000.000001000.000001000.000001000.000001000.00000
     Eigenvalues --- 1000.000001000.000001000.000001000.000001000.00000
     Eigenvalues --- 1000.000001000.000001000.000001000.000001000.00000
     Eigenvalues --- 1000.000001000.000001000.000001000.000001000.00000
     Eigenvalues --- 1000.000001000.000001000.00000
 RFO step:  Lambda=-1.49681599D-01 EMin= 2.36824078D-03
 Linear search not attempted -- first point.
 Maximum step size (   0.300) exceeded in Quadratic search.
    -- Step size scaled by   0.411
 Iteration  1 RMS(Cart)=  0.03817452 RMS(Int)=  0.00085397
 Iteration  2 RMS(Cart)=  0.00165748 RMS(Int)=  0.00042775
 Iteration  3 RMS(Cart)=  0.00000176 RMS(Int)=  0.00042775
 Iteration  4 RMS(Cart)=  0.00000000 RMS(Int)=  0.00042775
 Variable       Old X    -DE/DX   Delta X   Delta X   Delta X     New X
                                 (Linear)    (Quad)   (Total)
    R1        2.81031  -0.07607   0.00000  -0.06265  -0.06316   2.74715
    R2        2.02201   0.00569   0.00000   0.00447   0.00447   2.02648
    R3        2.78483  -0.02563   0.00000  -0.02165  -0.02121   2.76362
    R4        2.02201   0.09699   0.00000   0.07630   0.07630   2.09831
    R5        2.89243  -0.05095   0.00000  -0.05176  -0.05173   2.84070
    R6        2.49942  -0.00969   0.00000  -0.00570  -0.00584   2.49358
    R7        2.02201   0.00645   0.00000   0.00507   0.00507   2.02708
    R8        2.70124  -0.01293   0.00000  -0.00566  -0.00548   2.69576
    R9        2.78734   0.12243   0.00000   0.15245   0.15245   2.93979
   R10        2.02201   0.01361   0.00000   0.01071   0.01071   2.03272
   R11        2.02201   0.01591   0.00000   0.01252   0.01252   2.03453
   R12        2.91018  -0.00376   0.00000  -0.00355  -0.00355   2.90663
   R13        2.77790   0.01429   0.00000   0.01157   0.01157   2.78947
   R14        2.02201   0.01590   0.00000   0.01251   0.01251   2.03452
   R15        2.02201   0.01627   0.00000   0.01280   0.01280   2.03481
   R16        2.91018  -0.00292   0.00000  -0.00276  -0.00276   2.90742
   R17        2.02201   0.01591   0.00000   0.01251   0.01251   2.03452
   R18        2.02201   0.01612   0.00000   0.01268   0.01268   2.03469
   R19        2.91018  -0.00131   0.00000  -0.00124  -0.00124   2.90894
   R20        2.02201   0.01516   0.00000   0.01192   0.01192   2.03393
   R21        2.02201   0.01482   0.00000   0.01166   0.01166   2.03367
   R22        2.02201   0.01534   0.00000   0.01207   0.01207   2.03408
   R23        2.02201   0.01333   0.00000   0.01049   0.01049   2.03250
   R24        2.02201   0.01376   0.00000   0.01083   0.01083   2.03284
   R25        2.02201   0.01319   0.00000   0.01038   0.01038   2.03239
   R26        2.77790  -0.01156   0.00000  -0.00936  -0.00936   2.76853
    A1        2.27561  -0.00678   0.00000  -0.01187  -0.01159   2.26402
    A2        1.73676   0.02576   0.00000   0.03869   0.03710   1.77387
    A3        2.26985  -0.01972   0.00000  -0.02854  -0.02800   2.24185
    A4        2.17658   0.00937   0.00000   0.00811   0.00869   2.18527
    A5        2.17687   0.00707   0.00000   0.00534   0.00596   2.18283
    A6        1.92863  -0.01666   0.00000  -0.01392  -0.01517   1.91346
    A7        2.24573   0.00824   0.00000   0.00260   0.00281   2.24854
    A8        1.78064   0.00115   0.00000   0.01520   0.01288   1.79352
    A9        2.24873  -0.01254   0.00000  -0.02441  -0.02365   2.22507
   A10        2.41552   0.03763   0.00000   0.03867   0.03867   2.45418
   A11        1.91063  -0.00153   0.00000  -0.00392  -0.00393   1.90671
   A12        1.91063  -0.00007   0.00000   0.00004   0.00006   1.91069
   A13        1.91063  -0.00468   0.00000  -0.00738  -0.00738   1.90325
   A14        1.91063   0.00069   0.00000   0.00278   0.00276   1.91340
   A15        1.91063   0.00011   0.00000   0.00174   0.00171   1.91234
   A16        1.91063   0.00547   0.00000   0.00673   0.00672   1.91735
   A17        1.91063   0.00136   0.00000   0.00287   0.00287   1.91350
   A18        1.91063  -0.00169   0.00000  -0.00201  -0.00201   1.90862
   A19        1.91063   0.00348   0.00000   0.00442   0.00441   1.91505
   A20        1.91063  -0.00105   0.00000  -0.00291  -0.00291   1.90772
   A21        1.91063  -0.00228   0.00000  -0.00298  -0.00299   1.90764
   A22        1.91063   0.00018   0.00000   0.00062   0.00062   1.91126
   A23        1.91063  -0.00194   0.00000  -0.00209  -0.00209   1.90854
   A24        1.91063  -0.00153   0.00000  -0.00138  -0.00139   1.90924
   A25        1.91063   0.00659   0.00000   0.00801   0.00801   1.91864
   A26        1.91063  -0.00072   0.00000  -0.00299  -0.00300   1.90763
   A27        1.91063  -0.00110   0.00000  -0.00064  -0.00064   1.90999
   A28        1.91063  -0.00131   0.00000  -0.00091  -0.00091   1.90972
   A29        1.91063   0.00291   0.00000   0.00382   0.00380   1.91444
   A30        1.91063   0.00494   0.00000   0.00662   0.00660   1.91724
   A31        1.91063   0.00318   0.00000   0.00419   0.00418   1.91481
   A32        1.91063  -0.00383   0.00000  -0.00503  -0.00505   1.90558
   A33        1.91063  -0.00328   0.00000  -0.00447  -0.00448   1.90615
   A34        1.91063  -0.00392   0.00000  -0.00512  -0.00514   1.90550
   A35        1.91063   0.00323   0.00000   0.00398   0.00397   1.91460
   A36        1.91063   0.00250   0.00000   0.00394   0.00394   1.91457
   A37        1.91063  -0.00168   0.00000  -0.00207  -0.00208   1.90855
   A38        1.91063   0.00245   0.00000   0.00293   0.00293   1.91356
   A39        1.91063  -0.00630   0.00000  -0.00866  -0.00868   1.90196
   A40        1.91063  -0.00020   0.00000  -0.00011  -0.00012   1.91051
   A41        1.73265   0.01396   0.00000   0.02802   0.02740   1.76005
   A42        1.99794   0.00935   0.00000   0.01453   0.01407   2.01201
   A43        1.96009  -0.00354   0.00000   0.00236   0.00284   1.96292
   A44        1.82984   0.02061   0.00000   0.03340   0.03235   1.86220
   A45        2.22282  -0.01246   0.00000  -0.01920  -0.01885   2.20397
   A46        2.22966  -0.00856   0.00000  -0.01512  -0.01469   2.21497
    D1       -1.02606   0.00319   0.00000   0.00852   0.00732  -1.01874
    D2        2.24385   0.02928   0.00000   0.06248   0.06178   2.30563
    D3        2.15967   0.02051   0.00000   0.04858   0.04784   2.20751
    D4       -0.85361   0.04661   0.00000   0.10255   0.10229  -0.75131
    D5        0.64645  -0.02124   0.00000  -0.05966  -0.06115   0.58530
    D6        2.73721  -0.01262   0.00000  -0.03303  -0.03335   2.70386
    D7       -2.45121  -0.00447   0.00000  -0.02040  -0.02193  -2.47315
    D8       -0.36046   0.00415   0.00000   0.00623   0.00587  -0.35460
    D9       -1.45024  -0.00183   0.00000  -0.00651  -0.00649  -1.45673
   D10        1.63597  -0.00768   0.00000  -0.01874  -0.01876   1.61720
   D11        2.83943   0.01050   0.00000   0.01728   0.01713   2.85656
   D12        0.72098  -0.00696   0.00000  -0.01697  -0.01725   0.70372
   D13       -0.25356   0.01509   0.00000   0.02757   0.02732  -0.22624
   D14       -2.37202  -0.00236   0.00000  -0.00668  -0.00706  -2.37908
   D15        2.90990   0.02169   0.00000   0.04665   0.04668   2.95658
   D16       -0.27378   0.01162   0.00000   0.02407   0.02362  -0.25015
   D17       -0.28030   0.01717   0.00000   0.03645   0.03660  -0.24369
   D18        2.81921   0.00711   0.00000   0.01387   0.01355   2.83276
   D19        0.70733  -0.03520   0.00000  -0.08099  -0.08168   0.62565
   D20       -2.39195  -0.02495   0.00000  -0.05816  -0.05831  -2.45027
   D21       -2.30563  -0.01119   0.00000  -0.02970  -0.03091  -2.33655
   D22        0.87827  -0.00095   0.00000  -0.00687  -0.00755   0.87072
   D23        3.14159   0.00067   0.00000   0.00138   0.00138  -3.14021
   D24       -1.04720  -0.00082   0.00000  -0.00166  -0.00167  -1.04886
   D25        1.04720   0.00050   0.00000   0.00057   0.00057   1.04776
   D26        1.04720   0.00216   0.00000   0.00445   0.00446   1.05166
   D27        3.14159   0.00068   0.00000   0.00141   0.00142  -3.14018
   D28       -1.04720   0.00200   0.00000   0.00365   0.00365  -1.04355
   D29       -1.04720  -0.00175   0.00000  -0.00351  -0.00351  -1.05071
   D30        1.04720  -0.00323   0.00000  -0.00655  -0.00656   1.04064
   D31        3.14159  -0.00191   0.00000  -0.00432  -0.00433   3.13727
   D32       -3.07366  -0.00804   0.00000  -0.01815  -0.01817  -3.09183
   D33       -1.11513   0.01319   0.00000   0.02802   0.02803  -1.08710
   D34       -0.97927  -0.01271   0.00000  -0.02640  -0.02642  -1.00569
   D35        0.97927   0.00851   0.00000   0.01977   0.01978   0.99905
   D36        1.11513  -0.00844   0.00000  -0.01780  -0.01780   1.09732
   D37        3.07366   0.01278   0.00000   0.02837   0.02839   3.10205
   D38       -1.04720   0.00226   0.00000   0.00418   0.00418  -1.04302
   D39        1.04720  -0.00074   0.00000  -0.00161  -0.00161   1.04559
   D40        3.14159   0.00076   0.00000   0.00134   0.00134  -3.14026
   D41       -3.14159  -0.00014   0.00000  -0.00020  -0.00020   3.14139
   D42       -1.04720  -0.00313   0.00000  -0.00600  -0.00599  -1.05319
   D43        1.04720  -0.00164   0.00000  -0.00305  -0.00304   1.04415
   D44        1.04720   0.00243   0.00000   0.00481   0.00480   1.05200
   D45       -3.14159  -0.00057   0.00000  -0.00098  -0.00098   3.14061
   D46       -1.04720   0.00093   0.00000   0.00196   0.00196  -1.04523
   D47        1.04720  -0.00025   0.00000  -0.00049  -0.00049   1.04671
   D48        3.14159  -0.00014   0.00000  -0.00026  -0.00026   3.14133
   D49       -1.04720   0.00003   0.00000   0.00009   0.00009  -1.04711
   D50       -1.04720  -0.00124   0.00000  -0.00245  -0.00245  -1.04965
   D51        1.04720  -0.00113   0.00000  -0.00222  -0.00222   1.04498
   D52        3.14159  -0.00095   0.00000  -0.00187  -0.00187   3.13972
   D53        3.14159   0.00111   0.00000   0.00217   0.00217  -3.13942
   D54       -1.04720   0.00122   0.00000   0.00239   0.00240  -1.04480
   D55        1.04720   0.00140   0.00000   0.00274   0.00275   1.04994
   D56        2.64372   0.00642   0.00000   0.01405   0.01406   2.65779
   D57       -0.54933  -0.00527   0.00000  -0.01251  -0.01254  -0.56187
   D58       -1.54507   0.00549   0.00000   0.01235   0.01237  -1.53269
   D59        1.54507  -0.00620   0.00000  -0.01421  -0.01423   1.53084
   D60        0.54933   0.00452   0.00000   0.01057   0.01059   0.55992
   D61       -2.64372  -0.00717   0.00000  -0.01599  -0.01601  -2.65973
         Item               Value     Threshold  Converged?
 Maximum Force            0.122430     0.000450     NO 
 RMS     Force            0.019329     0.000300     NO 
 Maximum Displacement     0.163498     0.001800     NO 
 RMS     Displacement     0.038078     0.001200     NO 
 Predicted change in Energy=-5.558959D-02
 GradGradGradGradGradGradGradGradGradGradGradGradGradGradGradGradGradGrad

                          Input orientation:                          
 ---------------------------------------------------------------------
 Center     Atomic      Atomic             Coordinates (Angstroms)
 Number     Number       Type             X           Y           Z
 ---------------------------------------------------------------------
      1          6           0       -1.155407    0.851568   -0.033613
      2          6           0        0.497520    2.408135    0.231992
      3          6           0       -1.472190    2.099983   -0.707732
      4          1           0        1.427994    2.892789    0.595677
      5          1           0       -2.048277    2.255714   -1.599092
      6          1           0       -1.811112    0.105956    0.371463
      7          6           0        0.906013    0.146732    1.156000
      8          1           0        1.968695    0.313257    1.161963
      9          1           0        0.491413    0.466429    2.096757
     10          6           0        0.622789   -1.350816    0.948757
     11          1           0       -0.440387   -1.520254    0.940978
     12          1           0        1.040392   -1.666111    0.007671
     13          6           0        1.258712   -2.162426    2.090686
     14          1           0        2.322005   -1.993743    2.099096
     15          1           0        0.840605   -1.845025    3.030766
     16          6           0        0.979693   -3.662493    1.886885
     17          1           0        1.397860   -3.984979    0.949025
     18          1           0        1.425247   -4.228936    2.686115
     19          1           0       -0.082515   -3.836474    1.879641
     20          6           0       -0.969214    4.411252    0.339446
     21          1           0       -1.660608    4.820010   -0.375886
     22          1           0       -1.421939    4.398978    1.315195
     23          1           0       -0.075875    5.009647    0.362962
     24          7           0        0.302134    0.927773    0.058619
     25          7           0       -0.627820    3.039268   -0.044569
     26         17           0        2.157386    3.251872    1.922009
 ---------------------------------------------------------------------
                    Distance matrix (angstroms):
                    1          2          3          4          5
     1  C    0.000000
     2  C    2.285960   0.000000
     3  C    1.453729   2.204041   0.000000
     4  H    3.352096   1.110377   3.276962   0.000000
     5  H    2.284637   3.139615   1.072683   4.160208   0.000000
     6  H    1.072368   3.263320   2.292526   4.278845   2.925883
     7  C    2.482222   2.476813   3.597852   2.850834   4.556991
     8  H    3.388096   2.723548   4.304398   2.695741   5.247154
     9  H    2.720078   2.692138   3.793336   3.002939   4.828132
    10  C    2.996252   3.828728   4.363589   4.333729   5.160735
    11  H    2.662071   4.100557   4.109620   4.804688   4.826510
    12  H    3.340950   4.116371   4.583485   4.612977   5.244261
    13  C    4.407355   4.992413   5.784212   5.274363   6.638569
    14  H    4.973594   5.117750   6.247624   5.190156   7.129786
    15  H    4.543798   5.102962   5.906647   5.359250   6.826220
    16  C    5.350113   6.310601   6.778636   6.696261   7.506384
    17  H    5.556702   6.495895   6.928838   6.886904   7.570667
    18  H    6.314129   7.136814   7.743937   7.422190   8.513463
    19  H    5.175846   6.484315   6.623234   7.015211   7.285641
    20  C    3.584019   2.485021   2.586799   2.849208   3.093324
    21  H    4.015086   3.293049   2.746665   3.767967   2.867427
    22  H    3.804529   2.970034   3.062701   3.302790   3.671369
    23  H    4.314195   2.667170   3.400327   2.607080   3.914610
    24  N    1.462443   1.503231   2.260442   2.327504   3.167943
    25  N    2.250444   1.319547   1.426535   2.158180   2.246819
    26  Cl   4.534371   2.514599   4.627766   1.555671   5.574772
                    6          7          8          9         10
     6  H    0.000000
     7  C    2.828415   0.000000
     8  H    3.867144   1.075667   0.000000
     9  H    2.899690   1.076625   1.754896   0.000000
    10  C    2.894707   1.538121   2.150828   2.153496   0.000000
    11  H    2.201771   2.153571   3.035502   2.480118   1.076621
    12  H    3.376928   2.150144   2.472253   3.035356   1.076776
    13  C    4.186300   2.515998   2.737811   2.738551   1.538542
    14  H    4.947334   2.734245   2.515015   3.066516   2.150342
    15  H    4.232001   2.736078   3.069722   2.517366   2.150918
    16  C    4.928114   3.879409   4.160556   4.162987   2.520181
    17  H    5.231331   4.166027   4.341201   4.685506   2.745823
    18  H    5.884125   4.664475   4.821815   4.823468   3.456288
    19  H    4.561295   4.167346   4.684314   4.346437   2.746360
    20  C    4.386956   4.729626   5.108953   4.558859   6.008923
    21  H    4.775300   5.547409   5.987290   5.449663   6.711757
    22  H    4.412723   4.850391   5.311590   4.442600   6.113536
    23  H    5.201663   5.024038   5.184085   4.895782   6.425479
    24  N    2.288900   1.476123   2.091033   2.098254   2.467212
    25  N    3.190232   3.487231   3.953321   3.529512   4.671570
    26  Cl   5.296221   3.434327   3.041173   3.250337   4.948429
                   11         12         13         14         15
    11  H    0.000000
    12  H    1.756428   0.000000
    13  C    2.149686   2.152428   0.000000
    14  H    3.032530   2.474659   1.076623   0.000000
    15  H    2.472576   3.034968   1.076711   1.756323   0.000000
    16  C    2.738714   2.742384   1.539346   2.152106   2.151975
    17  H    3.074749   2.528058   2.155099   2.478250   3.037034
    18  H    3.723312   3.726963   2.157020   2.478881   2.478633
    19  H    2.524686   3.078257   2.155428   3.037356   2.478530
    20  C    5.985337   6.409597   7.158473   7.412992   7.046960
    21  H    6.589539   7.036497   7.959951   8.271275   7.892024
    22  H    6.011721   6.675177   7.130168   7.449732   6.859290
    23  H    6.565560   6.777760   7.496985   7.603385   7.412398
    24  N    2.706055   2.697380   3.820166   4.096179   4.100246
    25  N    4.668584   4.992620   5.930931   6.215141   5.955693
    26  Cl   5.521235   5.394342   5.490964   5.251185   5.379741
                   16         17         18         19         20
    16  C    0.000000
    17  H    1.076309   0.000000
    18  H    1.076171   1.754351   0.000000
    19  H    1.076387   1.754881   1.754358   0.000000
    20  C    8.448559   8.744788   9.267856   8.437027   0.000000
    21  H    9.167561   9.414746  10.039013   9.083639   1.075551
    22  H    8.431013   8.853026   9.188405   8.362735   1.075730
    23  H    8.868065   9.133381   9.643745   8.975200   1.075493
    24  N    4.987202   5.111611   5.895487   5.114893   3.718845
    25  N    7.157389   7.377713   8.031097   7.160711   1.465045
    26  Cl   7.014031   7.341361   7.555288   7.433949   3.691110
                   21         22         23         24         25
    21  H    0.000000
    22  H    1.758972   0.000000
    23  H    1.758760   1.758281   0.000000
    24  N    4.380715   4.074392   4.110621   0.000000
    25  N    2.085057   2.080479   2.086413   2.309518   0.000000
    26  Cl   4.724030   3.807314   3.241582   3.509361   3.416139
                   26
    26  Cl   0.000000
 Stoichiometry    C8H15ClN2
 Framework group  C1[X(C8H15ClN2)]
 Deg. of freedom    72
 Full point group                 C1      NOp   1
 Largest Abelian subgroup         C1      NOp   1
 Largest concise Abelian subgroup C1      NOp   1
                         Standard orientation:                         
 ---------------------------------------------------------------------
 Center     Atomic      Atomic             Coordinates (Angstroms)
 Number     Number       Type             X           Y           Z
 ---------------------------------------------------------------------
      1          6           0       -0.198184   -1.844474    0.146853
      2          6           0       -1.411874   -0.011857   -0.480909
      3          6           0       -1.582585   -2.182695   -0.140149
      4          1           0       -1.675344    1.047305   -0.685107
      5          1           0       -1.984771   -3.098401   -0.527933
      6          1           0        0.501671   -2.321732    0.804424
      7          6           0        1.016242    0.305210   -0.108989
      8          1           0        1.015868    1.202581   -0.702102
      9          1           0        0.816334    0.558591    0.918122
     10          6           0        2.389924   -0.378657   -0.214540
     11          1           0        2.392718   -1.278085    0.377180
     12          1           0        2.585949   -0.628793   -1.243351
     13          6           0        3.484292    0.572249    0.300482
     14          1           0        3.482365    1.471944   -0.290839
     15          1           0        3.285960    0.821911    1.328899
     16          6           0        4.861687   -0.106924    0.195168
     17          1           0        5.065375   -0.356486   -0.831804
     18          1           0        5.626149    0.559357    0.555463
     19          1           0        4.869139   -1.006319    0.786472
     20          6           0       -3.558893   -0.676599    0.579165
     21          1           0       -4.191835   -1.531109    0.417901
     22          1           0       -3.435675   -0.510710    1.634861
     23          1           0       -4.001043    0.192706    0.125849
     24          7           0       -0.035404   -0.602520   -0.607994
     25          7           0       -2.245499   -0.925230   -0.020448
     26         17           0       -1.670012    2.441998    0.004034
 ---------------------------------------------------------------------
 Rotational constants (GHZ):      1.3028573      0.4675172      0.3564290
 Standard basis: 6-311+G(d) (5D, 7F)
 There are   295 symmetry adapted basis functions of A   symmetry.
 Integral buffers will be    131072 words long.
 Raffenetti 2 integral format.
 Two-electron integral symmetry is turned on.
   295 basis functions,   488 primitive gaussians,   306 cartesian basis functions
    47 alpha electrons       47 beta electrons
       nuclear repulsion energy       697.6907271636 Hartrees.
 NAtoms=   26 NActive=   26 NUniq=   26 SFac= 7.50D-01 NAtFMM=   80 NAOKFM=F Big=F
 One-electron integrals computed using PRISM.
 NBasis=   295 RedAO= T  NBF=   295
 NBsUse=   295 1.00D-06 NBFU=   295
 Initial guess read from the read-write file.
 B after Tr=     0.000000    0.000000    0.000000
         Rot=    1.000000    0.000000    0.000000    0.000000 Ang=   0.00 deg.
 Initial guess orbital symmetries:
       Occupied  (A) (A) (A) (A) (A) (A) (A) (A) (A) (A) (A) (A)
                 (A) (A) (A) (A) (A) (A) (A) (A) (A) (A) (A) (A)
                 (A) (A) (A) (A) (A) (A) (A) (A) (A) (A) (A) (A)
                 (A) (A) (A) (A) (A) (A) (A) (A) (A) (A) (A)
       Virtual   (A) (A) (A) (A) (A) (A) (A) (A) (A) (A) (A) (A)
                 (A) (A) (A) (A) (A) (A) (A) (A) (A) (A) (A) (A)
                 (A) (A) (A) (A) (A) (A) (A) (A) (A) (A) (A) (A)
                 (A) (A) (A) (A) (A) (A) (A) (A) (A) (A) (A) (A)
                 (A) (A) (A) (A) (A) (A) (A) (A) (A) (A) (A) (A)
                 (A) (A) (A) (A) (A) (A) (A) (A) (A) (A) (A) (A)
                 (A) (A) (A) (A) (A) (A) (A) (A) (A) (A) (A) (A)
                 (A) (A) (A) (A) (A) (A) (A) (A) (A) (A) (A) (A)
                 (A) (A) (A) (A) (A) (A) (A) (A) (A) (A) (A) (A)
                 (A) (A) (A) (A) (A) (A) (A) (A) (A) (A) (A) (A)
                 (A) (A) (A) (A) (A) (A) (A) (A) (A) (A) (A) (A)
                 (A) (A) (A) (A) (A) (A) (A) (A) (A) (A) (A) (A)
                 (A) (A) (A) (A) (A) (A) (A) (A) (A) (A) (A) (A)
                 (A) (A) (A) (A) (A) (A) (A) (A) (A) (A) (A) (A)
                 (A) (A) (A) (A) (A) (A) (A) (A) (A) (A) (A) (A)
                 (A) (A) (A) (A) (A) (A) (A) (A) (A) (A) (A) (A)
                 (A) (A) (A) (A) (A) (A) (A) (A) (A) (A) (A) (A)
                 (A) (A) (A) (A) (A) (A) (A) (A) (A) (A) (A) (A)
                 (A) (A) (A) (A) (A) (A) (A) (A) (A) (A) (A) (A)
                 (A) (A) (A) (A) (A) (A) (A) (A) (A) (A) (A) (A)
                 (A) (A) (A) (A) (A) (A) (A) (A)
 Harris functional with IExCor= 1009 diagonalized for initial guess.
 ExpMin= 4.38D-02 ExpMax= 1.06D+05 ExpMxC= 3.62D+03 IAcc=2 IRadAn=         0 AccDes= 0.00D+00
 HarFok:  IExCor= 1009 AccDes= 0.00D+00 IRadAn=         0 IDoV= 1
 ScaDFX=  1.000000  1.000000  1.000000  1.000000
 FoFCou: FMM=F IPFlag=           0 FMFlag=      100000 FMFlg1=           0
         NFxFlg=           0 DoJE=T BraDBF=F KetDBF=T FulRan=T
         Omega=  0.000000  0.000000  1.000000  0.000000  0.000000 ICntrl=     500 IOpCl=  0
         NMat0=    1 NMatS0=    1 NMatT0=    0 NMatD0=    1 NMtDS0=    0 NMtDT0=    0
         I1Cent=           4 NGrid=           0.
 Petite list used in FoFCou.
 Requested convergence on RMS density matrix=1.00D-08 within 128 cycles.
 Requested convergence on MAX density matrix=1.00D-06.
 Requested convergence on             energy=1.00D-06.
 No special actions if energy rises.
 SCF Done:  E(RM062X) =  -883.319173242     A.U. after   14 cycles
             Convg  =    0.3034D-08             -V/T =  2.0028
 Calling FoFJK, ICntrl=      2127 FMM=F ISym2X=0 I1Cent= 0 IOpClX= 0 NMat=1 NMatS=1 NMatT=0.
 ***** Axes restored to original set *****
 -------------------------------------------------------------------
 Center     Atomic                   Forces (Hartrees/Bohr)
 Number     Number              X              Y              Z
 -------------------------------------------------------------------
      1        6           0.036061496    0.060374714   -0.076341218
      2        6          -0.034122288   -0.057576832   -0.045577624
      3        6          -0.015051326   -0.054497230    0.080498955
      4        1          -0.003605305   -0.008558582   -0.015551825
      5        1          -0.018760027    0.013228275    0.009097857
      6        1           0.002769181   -0.016366158   -0.015328095
      7        6          -0.000946906   -0.021932267   -0.011571343
      8        1           0.008816989    0.005423788    0.000540254
      9        1          -0.000437123    0.005346126    0.010527947
     10        6           0.015666827    0.013852832    0.019343787
     11        1          -0.010672819   -0.004960580   -0.001964811
     12        1           0.001701583   -0.003462706   -0.011253001
     13        6          -0.014639126   -0.011880551   -0.020423175
     14        1           0.010748478    0.003414288    0.002860539
     15        1          -0.001390814    0.004477793    0.010902838
     16        6           0.005831942    0.020028608    0.006053786
     17        1           0.003243424   -0.005762490   -0.008856664
     18        1           0.003059454   -0.008341199    0.006223884
     19        1          -0.010227108   -0.004503150   -0.000493950
     20        6           0.008511933   -0.005240086   -0.014876053
     21        1          -0.006165047    0.002265582   -0.006763905
     22        1          -0.003637360   -0.003017846    0.008598763
     23        1           0.008273674    0.003846466    0.001459341
     24        7          -0.052566554    0.067736206    0.056017267
[...]

 **********************************************************************

 Orbital symmetries:
       Occupied  (A) (A) (A) (A) (A) (A) (A) (A) (A) (A) (A) (A)
                 (A) (A) (A) (A) (A) (A) (A) (A) (A) (A) (A) (A)
                 (A) (A) (A) (A) (A) (A) (A) (A) (A) (A) (A) (A)
                 (A) (A) (A) (A) (A) (A) (A) (A) (A) (A) (A)
       Virtual   (A) (A) (A) (A) (A) (A) (A) (A) (A) (A) (A) (A)
                 (A) (A) (A) (A) (A) (A) (A) (A) (A) (A) (A) (A)
                 (A) (A) (A) (A) (A) (A) (A) (A) (A) (A) (A) (A)
                 (A) (A) (A) (A) (A) (A) (A) (A) (A) (A) (A) (A)
                 (A) (A) (A) (A) (A) (A) (A) (A) (A) (A) (A) (A)
                 (A) (A) (A) (A) (A) (A) (A) (A) (A) (A) (A) (A)
                 (A) (A) (A) (A) (A) (A) (A) (A) (A) (A) (A) (A)
                 (A) (A) (A) (A) (A) (A) (A) (A) (A) (A) (A) (A)
                 (A) (A) (A) (A) (A) (A) (A) (A) (A) (A) (A) (A)
                 (A) (A) (A) (A) (A) (A) (A) (A) (A) (A) (A) (A)
                 (A) (A) (A) (A) (A) (A) (A) (A) (A) (A) (A) (A)
                 (A) (A) (A) (A) (A) (A) (A) (A) (A) (A) (A) (A)
                 (A) (A) (A) (A) (A) (A) (A) (A) (A) (A) (A) (A)
                 (A) (A) (A) (A) (A) (A) (A) (A) (A) (A) (A) (A)
                 (A) (A) (A) (A) (A) (A) (A) (A) (A) (A) (A) (A)
                 (A) (A) (A) (A) (A) (A) (A) (A) (A) (A) (A) (A)
                 (A) (A) (A) (A) (A) (A) (A) (A) (A) (A) (A) (A)
                 (A) (A) (A) (A) (A) (A) (A) (A) (A) (A) (A) (A)
                 (A) (A) (A) (A) (A) (A) (A) (A) (A) (A) (A) (A)
                 (A) (A) (A) (A) (A) (A) (A) (A) (A) (A) (A) (A)
                 (A) (A) (A) (A) (A) (A) (A) (A)
 The electronic state is 1-A.
 Alpha  occ. eigenvalues -- -102.50810 -14.87478 -14.86391 -10.65357 -10.63278
 Alpha  occ. eigenvalues --  -10.63158 -10.62680 -10.59801 -10.53711 -10.52440
 Alpha  occ. eigenvalues --  -10.51271  -9.65011  -7.37133  -7.37099  -7.37091
 Alpha  occ. eigenvalues --   -1.22256  -1.09593  -0.94118  -0.90631  -0.87824
 Alpha  occ. eigenvalues --   -0.83116  -0.76578  -0.75243  -0.74170  -0.71303
 Alpha  occ. eigenvalues --   -0.66775  -0.66132  -0.61346  -0.58843  -0.56917
 Alpha  occ. eigenvalues --   -0.56309  -0.55062  -0.54643  -0.53986  -0.51391
 Alpha  occ. eigenvalues --   -0.49604  -0.48889  -0.45468  -0.42868  -0.41850
 Alpha  occ. eigenvalues --   -0.39418  -0.38518  -0.38050  -0.35307  -0.25317
 Alpha  occ. eigenvalues --   -0.24993  -0.24820
 Alpha virt. eigenvalues --   -0.01624  -0.01036  -0.00224   0.00350   0.01241
 Alpha virt. eigenvalues --    0.02381   0.02705   0.03057   0.03952   0.04495
 Alpha virt. eigenvalues --    0.05402   0.05742   0.06369   0.06812   0.07399
 Alpha virt. eigenvalues --    0.08148   0.08312   0.09309   0.10042   0.10621
 Alpha virt. eigenvalues --    0.11119   0.11369   0.12058   0.12637   0.13568
 Alpha virt. eigenvalues --    0.13702   0.14599   0.15184   0.15643   0.15891
 Alpha virt. eigenvalues --    0.16344   0.16797   0.17471   0.17674   0.18016
 Alpha virt. eigenvalues --    0.18688   0.19327   0.19653   0.20031   0.20956
 Alpha virt. eigenvalues --    0.21087   0.21370   0.21865   0.22258   0.22463
 Alpha virt. eigenvalues --    0.22594   0.23424   0.24400   0.25045   0.25286
 Alpha virt. eigenvalues --    0.25822   0.26830   0.27264   0.27792   0.28403
 Alpha virt. eigenvalues --    0.29083   0.29580   0.29818   0.30386   0.30598
 Alpha virt. eigenvalues --    0.31566   0.32545   0.33271   0.34448   0.35691
 Alpha virt. eigenvalues --    0.36144   0.38391   0.40196   0.42574   0.43076
 Alpha virt. eigenvalues --    0.43683   0.44836   0.46272   0.46464   0.47306
 Alpha virt. eigenvalues --    0.48243   0.50095   0.52893   0.54259   0.54495
 Alpha virt. eigenvalues --    0.55809   0.56017   0.57947   0.58931   0.59350
 Alpha virt. eigenvalues --    0.61445   0.62205   0.62834   0.63622   0.64166
 Alpha virt. eigenvalues --    0.65048   0.66144   0.67805   0.68203   0.68914
 Alpha virt. eigenvalues --    0.69255   0.70423   0.71672   0.71771   0.74126
 Alpha virt. eigenvalues --    0.74610   0.75019   0.75577   0.75786   0.76567
 Alpha virt. eigenvalues --    0.77274   0.78305   0.80453   0.80841   0.81216
 Alpha virt. eigenvalues --    0.81647   0.84397   0.86278   0.87325   0.89642
 Alpha virt. eigenvalues --    0.92077   0.94391   0.97717   0.99460   1.00840
 Alpha virt. eigenvalues --    1.02023   1.04408   1.04923   1.06953   1.08338
 Alpha virt. eigenvalues --    1.09681   1.10606   1.11894   1.12524   1.13893
 Alpha virt. eigenvalues --    1.14701   1.15196   1.18181   1.20798   1.24054
 Alpha virt. eigenvalues --    1.26202   1.29672   1.30219   1.31359   1.34235
 Alpha virt. eigenvalues --    1.35818   1.38507   1.48629   1.50817   1.54362
 Alpha virt. eigenvalues --    1.55642   1.56946   1.58793   1.59656   1.60655
 Alpha virt. eigenvalues --    1.62971   1.64098   1.64612   1.68243   1.69791
 Alpha virt. eigenvalues --    1.70562   1.71077   1.71833   1.74826   1.76847
 Alpha virt. eigenvalues --    1.78440   1.81274   1.85130   1.86514   1.87805
 Alpha virt. eigenvalues --    1.88743   1.89560   1.94946   1.96758   1.97829
 Alpha virt. eigenvalues --    2.01029   2.07730   2.18608   2.21375   2.24564
 Alpha virt. eigenvalues --    2.26876   2.30358   2.36870   2.42481   2.43285
 Alpha virt. eigenvalues --    2.45089   2.47509   2.48332   2.50210   2.51490
 Alpha virt. eigenvalues --    2.54715   2.56325   2.57051   2.57166   2.58754
 Alpha virt. eigenvalues --    2.58909   2.62435   2.63888   2.64498   2.65338
 Alpha virt. eigenvalues --    2.68160   2.68930   2.71830   2.74715   2.79787
 Alpha virt. eigenvalues --    2.81218   2.87004   2.92043   2.98761   3.03651
 Alpha virt. eigenvalues --    3.05948   3.10165   3.15605   3.17356   3.18125
 Alpha virt. eigenvalues --    3.20138   3.23962   3.25960   3.30195   3.30799
 Alpha virt. eigenvalues --    3.32652   3.40363   3.44696   3.48862   3.53044
 Alpha virt. eigenvalues --    3.56520   3.58226   3.65987   3.73354   3.89174
 Alpha virt. eigenvalues --    3.90729   3.94468   3.98673   4.12841   4.65122
 Alpha virt. eigenvalues --    4.83010   4.88571   5.18275  10.04424  23.53973
 Alpha virt. eigenvalues --   23.57500  23.65694  23.72381  23.78319  23.83619
 Alpha virt. eigenvalues --   23.89114  24.13310  26.07539  26.18479  26.25174
 Alpha virt. eigenvalues --   35.49869  35.63747 216.13939
          Condensed to atoms (all electrons):
              1          2          3          4          5          6
     1  C    6.978907  -0.029400  -0.907110   0.058046   0.010378   0.412932
     2  C   -0.029400   6.418713  -0.197287   0.160797   0.025723  -0.005954
     3  C   -0.907110  -0.197287   6.796663  -0.075706   0.372056  -0.023171
     4  H    0.058046   0.160797  -0.075706   0.413321   0.000146   0.000036
     5  H    0.010378   0.025723   0.372056   0.000146   0.383880  -0.000660
     6  H    0.412932  -0.005954  -0.023171   0.000036  -0.000660   0.384721
     7  C   -0.054216  -0.541552  -0.522348   0.045476   0.000374  -0.008725
     8  H   -0.047578   0.050543   0.023403  -0.006099   0.000003  -0.000146
     9  H   -0.020472   0.010135   0.048391   0.000015   0.000004   0.000809
    10  C    0.087984   0.169313   0.266158  -0.032730  -0.001521   0.014382
    11  H    0.009190   0.022207  -0.014122  -0.000028   0.000007  -0.000865
    12  H    0.003496  -0.015795  -0.001569  -0.000958  -0.000003   0.000034
    13  C   -0.220357  -0.024272   0.075696  -0.001616  -0.000266   0.002261
    14  H   -0.000432   0.010577  -0.000066   0.000029   0.000000  -0.000014
    15  H    0.003917  -0.006996  -0.000783  -0.000040   0.000000   0.000036
    16  C   -0.016980  -0.019835   0.000700  -0.005954  -0.000008   0.000468
    17  H    0.000346  -0.002685  -0.000066   0.000035   0.000000   0.000001
    18  H    0.000087  -0.000360  -0.000033   0.000004   0.000000   0.000000
    19  H    0.000114   0.002752   0.000158   0.000009   0.000000  -0.000001
    20  C    0.008810  -0.285589  -0.139846   0.023087  -0.003273  -0.000603
    21  H    0.012406  -0.011188   0.000137  -0.000214  -0.000370   0.000007
    22  H   -0.001459  -0.019074   0.008026   0.000052  -0.000435   0.000002
    23  H    0.003010   0.073094  -0.020168   0.001096  -0.000126   0.000016
    24  N   -0.220451   0.556662   0.344994  -0.041571   0.009171  -0.071047
    25  N    0.189900   0.170905   0.155058  -0.017596  -0.072572   0.018024
    26  Cl   0.083447  -0.040864  -0.047135   0.171263   0.000116   0.000066
              7          8          9         10         11         12
     1  C   -0.054216  -0.047578  -0.020472   0.087984   0.009190   0.003496
     2  C   -0.541552   0.050543   0.010135   0.169313   0.022207  -0.015795
     3  C   -0.522348   0.023403   0.048391   0.266158  -0.014122  -0.001569
     4  H    0.045476  -0.006099   0.000015  -0.032730  -0.000028  -0.000958
     5  H    0.000374   0.000003   0.000004  -0.001521   0.000007  -0.000003
     6  H   -0.008725  -0.000146   0.000809   0.014382  -0.000865   0.000034
     7  C   10.367227   0.382577   0.274947  -2.522687   0.006112   0.011274
     8  H    0.382577   0.349271  -0.018331  -0.055492   0.003086  -0.007162
     9  H    0.274947  -0.018331   0.473582   0.073268  -0.009705   0.003271
    10  C   -2.522687  -0.055492   0.073268   8.335142   0.362998   0.436413
    11  H    0.006112   0.003086  -0.009705   0.362998   0.470562  -0.033646
    12  H    0.011274  -0.007162   0.003271   0.436413  -0.033646   0.364331
    13  C    0.547660   0.041353  -0.016573  -1.350551  -0.054605  -0.042225
    14  H   -0.025231   0.003623   0.000366  -0.027121   0.005484  -0.005525
    15  H    0.006618  -0.002016   0.000053  -0.036586  -0.007676   0.003483
    16  C   -0.065692  -0.001337   0.002603   0.069045  -0.006224   0.013632
    17  H    0.006423  -0.000001  -0.000056  -0.037705  -0.000426   0.001221
    18  H    0.008132  -0.000049  -0.000019   0.065403  -0.000276  -0.000246
    19  H   -0.007497   0.000041   0.000127  -0.038760   0.003374   0.000033
    20  C   -0.173427   0.001503   0.001043   0.057915  -0.000348  -0.002023
    21  H    0.002686  -0.000008  -0.000006   0.000111   0.000000   0.000008
    22  H    0.000044   0.000003  -0.000004  -0.000569   0.000001   0.000001
    23  H    0.003912   0.000006   0.000002  -0.000126   0.000002  -0.000005
    24  N   -0.239889  -0.060009  -0.065556   0.095089   0.005836  -0.023091
    25  N   -0.403441   0.003220  -0.008940   0.153293   0.001771  -0.006291
    26  Cl  -0.201447   0.002545   0.001241   0.190320  -0.000199  -0.008568
             13         14         15         16         17         18
     1  C   -0.220357  -0.000432   0.003917  -0.016980   0.000346   0.000087
     2  C   -0.024272   0.010577  -0.006996  -0.019835  -0.002685  -0.000360
     3  C    0.075696  -0.000066  -0.000783   0.000700  -0.000066  -0.000033
     4  H   -0.001616   0.000029  -0.000040  -0.005954   0.000035   0.000004
     5  H   -0.000266   0.000000   0.000000  -0.000008   0.000000   0.000000
     6  H    0.002261  -0.000014   0.000036   0.000468   0.000001   0.000000
     7  C    0.547660  -0.025231   0.006618  -0.065692   0.006423   0.008132
     8  H    0.041353   0.003623  -0.002016  -0.001337  -0.000001  -0.000049
     9  H   -0.016573   0.000366   0.000053   0.002603  -0.000056  -0.000019
    10  C   -1.350551  -0.027121  -0.036586   0.069045  -0.037705   0.065403
    11  H   -0.054605   0.005484  -0.007676  -0.006224  -0.000426  -0.000276
    12  H   -0.042225  -0.005525   0.003483   0.013632   0.001221  -0.000246
    13  C    7.186393   0.407571   0.422706  -0.324335   0.003240  -0.090827
    14  H    0.407571   0.404242  -0.040363  -0.032082  -0.007585  -0.003975
    15  H    0.422706  -0.040363   0.485014  -0.057695   0.005976  -0.003709
    16  C   -0.324335  -0.032082  -0.057695   6.429157   0.377978   0.369242
    17  H    0.003240  -0.007585   0.005976   0.377978   0.431866  -0.021381
    18  H   -0.090827  -0.003975  -0.003709   0.369242  -0.021381   0.442909
    19  H    0.025757   0.005505  -0.007832   0.358503  -0.036420  -0.028380
    20  C   -0.010627  -0.000010   0.000030  -0.002469   0.000029  -0.000003
    21  H   -0.000004   0.000000   0.000000   0.000025   0.000000   0.000000
    22  H    0.000079   0.000000   0.000000  -0.000003   0.000000   0.000000
    23  H   -0.000178   0.000000   0.000000   0.000025   0.000000   0.000000
    24  N   -0.056712   0.001594  -0.003467  -0.036057  -0.000455   0.000177
    25  N   -0.037345   0.000103   0.000117  -0.002366   0.000082  -0.000009
    26  Cl  -0.199847   0.002530   0.000138   0.039886  -0.000461  -0.000032
             19         20         21         22         23         24
     1  C    0.000114   0.008810   0.012406  -0.001459   0.003010  -0.220451
     2  C    0.002752  -0.285589  -0.011188  -0.019074   0.073094   0.556662
     3  C    0.000158  -0.139846   0.000137   0.008026  -0.020168   0.344994
     4  H    0.000009   0.023087  -0.000214   0.000052   0.001096  -0.041571
     5  H    0.000000  -0.003273  -0.000370  -0.000435  -0.000126   0.009171
     6  H   -0.000001  -0.000603   0.000007   0.000002   0.000016  -0.071047
     7  C   -0.007497  -0.173427   0.002686   0.000044   0.003912  -0.239889
     8  H    0.000041   0.001503  -0.000008   0.000003   0.000006  -0.060009
     9  H    0.000127   0.001043  -0.000006  -0.000004   0.000002  -0.065556
    10  C   -0.038760   0.057915   0.000111  -0.000569  -0.000126   0.095089
    11  H    0.003374  -0.000348   0.000000   0.000001   0.000002   0.005836
    12  H    0.000033  -0.002023   0.000008   0.000001  -0.000005  -0.023091
    13  C    0.025757  -0.010627  -0.000004   0.000079  -0.000178  -0.056712
    14  H    0.005505  -0.000010   0.000000   0.000000   0.000000   0.001594
    15  H   -0.007832   0.000030   0.000000   0.000000   0.000000  -0.003467
    16  C    0.358503  -0.002469   0.000025  -0.000003   0.000025  -0.036057
    17  H   -0.036420   0.000029   0.000000   0.000000   0.000000  -0.000455
    18  H   -0.028380  -0.000003   0.000000   0.000000   0.000000   0.000177
    19  H    0.477863   0.000019   0.000000   0.000000   0.000000   0.000762
    20  C    0.000019   5.926064   0.402168   0.416421   0.368998  -0.106077
    21  H    0.000000   0.402168   0.432171  -0.034807  -0.016677  -0.005046
    22  H    0.000000   0.416421  -0.034807   0.428827  -0.017261  -0.003094
    23  H    0.000000   0.368998  -0.016677  -0.017261   0.375393   0.010641
    24  N    0.000762  -0.106077  -0.005046  -0.003094   0.010641   6.903339
    25  N   -0.000001   0.157382  -0.054478  -0.050358  -0.085170  -0.385622
    26  Cl  -0.000314   0.016708  -0.000028  -0.000064  -0.000469   0.035350
             25         26
     1  C    0.189900   0.083447
     2  C    0.170905  -0.040864
     3  C    0.155058  -0.047135
     4  H   -0.017596   0.171263
     5  H   -0.072572   0.000116
     6  H    0.018024   0.000066
     7  C   -0.403441  -0.201447
     8  H    0.003220   0.002545
     9  H   -0.008940   0.001241
    10  C    0.153293   0.190320
    11  H    0.001771  -0.000199
    12  H   -0.006291  -0.008568
    13  C   -0.037345  -0.199847
    14  H    0.000103   0.002530
    15  H    0.000117   0.000138
    16  C   -0.002366   0.039886
    17  H    0.000082  -0.000461
    18  H   -0.000009  -0.000032
    19  H   -0.000001  -0.000314
    20  C    0.157382   0.016708
    21  H   -0.054478  -0.000028
    22  H   -0.050358  -0.000064
    23  H   -0.085170  -0.000469
    24  N   -0.385622   0.035350
    25  N    6.890124   0.025285
    26  Cl   0.025285  17.664414
 Mulliken atomic charges:
              1
     1  C   -0.344515
     2  C   -0.470567
     3  C   -0.142030
     4  H    0.309099
     5  H    0.277375
     6  H    0.277392
     7  C   -0.897310
     8  H    0.337052
     9  H    0.249806
    10  C   -0.272983
    11  H    0.237489
    12  H    0.309911
    13  C   -0.282375
    14  H    0.300778
    15  H    0.239072
    16  C   -1.090226
    17  H    0.280045
    18  H    0.263344
    19  H    0.244186
    20  C   -0.655882
    21  H    0.273108
    22  H    0.273671
    23  H    0.303985
    24  N    0.354528
    25  N    0.358926
    26  Cl  -0.733880
 Sum of Mulliken atomic charges =   0.00000
 Mulliken charges with hydrogens summed into heavy atoms:
              1
     1  C   -0.067122
     2  C   -0.161468
     3  C    0.135344
     7  C   -0.310452
    10  C    0.274417
    13  C    0.257475
    16  C   -0.302651
    20  C    0.194882
    24  N    0.354528
    25  N    0.358926
    26  Cl  -0.733880
 Sum of Mulliken charges with hydrogens summed into heavy atoms =   0.00000
 Electronic spatial extent (au):  <R**2>=           2862.9271
 Charge=              0.0000 electrons
 Dipole moment (field-independent basis, Debye):
    X=              8.4600    Y=             -9.3998    Z=              1.0125  Tot=             12.6867
 Quadrupole moment (field-independent basis, Debye-Ang):
   XX=            -56.4707   YY=            -92.6908   ZZ=            -77.9327
   XY=              8.8816   XZ=              4.2112   YZ=              5.6091
 Traceless Quadrupole moment (field-independent basis, Debye-Ang):
   XX=             19.2274   YY=            -16.9927   ZZ=             -2.2346
   XY=              8.8816   XZ=              4.2112   YZ=              5.6091
 Octapole moment (field-independent basis, Debye-Ang**2):
  XXX=             92.1234  YYY=            -83.5992  ZZZ=              2.0124  XYY=             42.1123
  XXY=             -3.5171  XXZ=             15.5514  XZZ=              6.6071  YZZ=             -3.1847
  YYZ=              4.9249  XYZ=             -1.0955
 Hexadecapole moment (field-independent basis, Debye-Ang**3):
 XXXX=          -2326.7882 YYYY=          -1166.8231 ZZZZ=           -272.6770 XXXY=             10.4732
 XXXZ=             76.1816 YYYX=             43.2810 YYYZ=             40.5640 ZZZX=             19.1932
 ZZZY=             10.4009 XXYY=           -593.5728 XXZZ=           -484.8845 YYZZ=           -228.5635
 XXYZ=              9.2542 YYXZ=              0.8599 ZZXY=             10.8080
 N-N= 7.049832347616D+02 E-N=-3.486142254733D+03  KE= 8.808122643656D+02
 1\1\GINC-N0289\FOpt\RM062X\6-311+G(d)\C8H15Cl1N2\WAB665\08-Mar-2017\0\
 \# opt M062X/6-311+G* geom=connectivity\\Title Card Required\\0,1\C,-1
 .9612203373,1.3015640185,0.8698182875\C,0.093826109,2.0861219193,0.712
 4708987\C,-2.0007432372,2.4056957939,0.0793572143\H,1.1887562685,2.136
 74774,0.8514796119\H,-2.8214643471,2.8929832412,-0.4193447724\H,-2.743
 5332645,0.635231838,1.1925348621\C,-0.0942772582,0.021607012,2.0602741
 41\H,0.7032295467,0.4504510133,2.668624945\H,-0.8993155704,-0.33649349
 55,2.7054000889\C,0.4781536818,-1.0764672672,1.1745734401\H,-0.3242424
 759,-1.5751504539,0.6172050741\H,1.1605656594,-0.6084570879,0.45950925
 82\C,1.2702702797,-2.0783775846,2.0087229688\H,2.0479828098,-1.5262477
 031,2.5452006648\H,0.6198550589,-2.5451428536,2.7581851487\C,1.9185358
 152,-3.1485257946,1.1368208105\H,2.6106078921,-2.6892128409,0.42731471
 21\H,2.4848194627,-3.8612977027,1.7390845104\H,1.1715685868,-3.7099611
 231,0.5681454173\C,-0.2559907482,4.0464824185,-0.7518518191\H,-0.48331
 57531,3.9164854377,-1.8089320403\H,-0.7481927291,4.9401015223,-0.37087
 78779\H,0.8200698263,4.1393165236,-0.6205326631\N,-0.651223318,1.12658
 02228,1.2549825536\N,-0.7060734251,2.8772304074,-0.0048101297\Cl,2.994
 4673272,1.3268417484,1.5174556845\\Version=EM64L-G09RevA.02\State=1-A\
 HF=-883.4844565\RMSD=8.508e-09\RMSF=4.036e-06\Dipole=-4.7284598,0.9182
 347,-1.3084124\Quadrupole=-11.4399645,10.1165848,1.3233797,-7.3748703,
 -1.75127,-8.9003478\PG=C01 [X(C8H15Cl1N2)]\\@


 ALL THINGS ARE POSSIBLE EXCEPT SKIING THROUGH A REVOLVING DOOR.
 Job cpu time:  0 days 21 hours 23 minutes 37.1 seconds.
 File lengths (MBytes):  RWF=    202 Int=      0 D2E=      0 Chk=      8 Scr=      4
 Normal termination of Gaussian 09 at Wed Mar  8 18:01:17 2017.
