 Entering Gaussian System, Link 0=g09
 Input=bmim.com
 Output=bmim.log
 Initial command:
 /gscratch/pfaendtner/codes/G09/g09/l1.exe /gscratch/pfaendtner/wesley/gaussian/Gau-789.inp -scrdir=/gscratch/pfaendtner/wesley/gaussian/
 Entering Link 1 = /gscratch/pfaendtner/codes/G09/g09/l1.exe PID=       790.
  
 Copyright (c) 1988,1990,1992,1993,1995,1998,2003,2009, Gaussian, Inc.
                  All Rights Reserved.
  
 This is part of the Gaussian(R) 09 program.  It is based on
 the Gaussian(R) 03 system (copyright 2003, Gaussian, Inc.),
 the Gaussian(R) 98 system (copyright 1998, Gaussian, Inc.),
 the Gaussian(R) 94 system (copyright 1995, Gaussian, Inc.),
 the Gaussian 92(TM) system (copyright 1992, Gaussian, Inc.),
 the Gaussian 90(TM) system (copyright 1990, Gaussian, Inc.),
 the Gaussian 88(TM) system (copyright 1988, Gaussian, Inc.),
 the Gaussian 86(TM) system (copyright 1986, Carnegie Mellon
 University), and the Gaussian 82(TM) system (copyright 1983,
 Carnegie Mellon University). Gaussian is a federally registered
 trademark of Gaussian, Inc.
  
 This software contains proprietary and confidential information,
 including trade secrets, belonging to Gaussian, Inc.
  
 This software is provided under written license and may be
 used, copied, transmitted, or stored only in accord with that
 written license.
  
 The following legend is applicable only to US Government
 contracts under FAR:
  
                    RESTRICTED RIGHTS LEGEND
  
 Use, reproduction and disclosure by the US Government is
 subject to restrictions as set forth in subparagraphs (a)
 and (c) of the Commercial Computer Software - Restricted
 Rights clause in FAR 52.227-19.
  
 Gaussian, Inc.
 340 Quinnipiac St., Bldg. 40, Wallingford CT 06492
  
  
 ---------------------------------------------------------------
 Warning -- This program may not be used in any manner that
 competes with the business of Gaussian, Inc. or will provide
 assistance to any competitor of Gaussian, Inc.  The licensee
 of this program is prohibited from giving any competitor of
 Gaussian, Inc. access to this program.  By using this program,
 the user acknowledges that Gaussian, Inc. is engaged in the
 business of creating and licensing software in the field of
 computational chemistry and represents and warrants to the
 licensee that it is not a competitor of Gaussian, Inc. and that
 it will not use this program in any manner prohibited above.
 ---------------------------------------------------------------
  

 Cite this work as:
 Gaussian 09, Revision A.02,
 M. J. Frisch, G. W. Trucks, H. B. Schlegel, G. E. Scuseria, 
 M. A. Robb, J. R. Cheeseman, G. Scalmani, V. Barone, B. Mennucci, 
 G. A. Petersson, H. Nakatsuji, M. Caricato, X. Li, H. P. Hratchian, 
 A. F. Izmaylov, J. Bloino, G. Zheng, J. L. Sonnenberg, M. Hada, 
 M. Ehara, K. Toyota, R. Fukuda, J. Hasegawa, M. Ishida, T. Nakajima, 
 Y. Honda, O. Kitao, H. Nakai, T. Vreven, J. A. Montgomery, Jr., 
 J. E. Peralta, F. Ogliaro, M. Bearpark, J. J. Heyd, E. Brothers, 
 K. N. Kudin, V. N. Staroverov, R. Kobayashi, J. Normand, 
 K. Raghavachari, A. Rendell, J. C. Burant, S. S. Iyengar, J. Tomasi, 
 M. Cossi, N. Rega, J. M. Millam, M. Klene, J. E. Knox, J. B. Cross, 
 V. Bakken, C. Adamo, J. Jaramillo, R. Gomperts, R. E. Stratmann, 
 O. Yazyev, A. J. Austin, R. Cammi, C. Pomelli, J. W. Ochterski, 
 R. L. Martin, K. Morokuma, V. G. Zakrzewski, G. A. Voth, 
 P. Salvador, J. J. Dannenberg, S. Dapprich, A. D. Daniels, 
 O. Farkas, J. B. Foresman, J. V. Ortiz, J. Cioslowski, 
 and D. J. Fox, Gaussian, Inc., Wallingford CT, 2009.
 
 ******************************************
 Gaussian 09:  EM64L-G09RevA.02 11-Jun-2009
                 3-Mar-2017 
 ******************************************
 %chk=bmim.chk
 %nproc=2
 Will use up to    2 processors via shared memory.
 --------------------
 # M062X/6-311+G* OPT
 --------------------
 1/14=-1,18=20,19=15,26=3,38=1/1,3;
 2/9=110,12=2,17=6,18=5,40=1/2;
 3/5=4,6=6,7=11,11=2,16=1,25=1,30=1,71=1,74=-55/1,2,3;
 4//1;
 5/5=2,38=5/2;
 6/7=2,8=2,9=2,10=2,28=1/1;
 7//1,2,3,16;
 1/14=-1,18=20,19=15/3(2);
 2/9=110/2;
 99//99;
 2/9=110/2;
 3/5=4,6=6,7=11,11=2,16=1,25=1,30=1,71=1,74=-55/1,2,3;
 4/5=5,16=3/1;
 5/5=2,38=5/2;
 7//1,2,3,16;
 1/14=-1,18=20,19=15/3(-5);
 2/9=110/2;
 6/7=2,8=2,9=2,10=2,19=2,28=1/1;
 99/9=1/99;
 -------------------
 Title Card Required
 -------------------
 Symbolic Z-matrix:
 Charge =  1 Multiplicity = 1
 C                    -1.14717   0.852     0.00436 
 C                     0.50471   2.42076   0.23179 
 C                    -1.42155   2.10739  -0.74419 
 H                     1.40344   2.89005   0.57379 
 H                    -1.96807   2.23691  -1.65493 
 H                    -1.82031   0.13626   0.42802 
 C                     0.93263   0.14073   1.14279 
 H                     1.99162   0.29382   1.14139 
 H                     0.5264    0.46653   2.07753 
 C                     0.63011  -1.35632   0.94549 
 H                    -0.42888  -1.5094    0.9469 
 H                     1.03634  -1.68211   0.01076 
 C                     1.26708  -2.16413   2.09149 
 H                     2.32607  -2.01104   2.09008 
 H                     0.86085  -1.83833   3.02623 
 C                     0.96456  -3.66118   1.89419 
 H                     1.37079  -3.98698   0.95945 
 H                     1.40713  -4.22245   2.69043 
 H                    -0.09443  -3.81426   1.89559 
 C                    -0.99284   4.4231    0.36521 
 H                    -1.67075   4.83413  -0.35339 
 H                    -1.46324   4.39844   1.32595 
 H                    -0.11341   5.03063   0.41416 
 N                     0.32461   0.91183   0.04889 
 N                    -0.62345   3.05762  -0.03469 
 

 GradGradGradGradGradGradGradGradGradGradGradGradGradGradGradGradGradGrad
 Berny optimization.
 Initialization pass.
                           ----------------------------
                           !    Initial Parameters    !
                           ! (Angstroms and Degrees)  !
 --------------------------                            --------------------------
 ! Name  Definition              Value          Derivative Info.                !
 --------------------------------------------------------------------------------
 ! R1    R(1,3)                  1.4872         estimate D2E/DX2                !
 ! R2    R(1,6)                  1.07           estimate D2E/DX2                !
 ! R3    R(1,24)                 1.4737         estimate D2E/DX2                !
 ! R4    R(2,4)                  1.07           estimate D2E/DX2                !
 ! R5    R(2,24)                 1.5306         estimate D2E/DX2                !
 ! R6    R(2,25)                 1.3226         estimate D2E/DX2                !
 ! R7    R(3,5)                  1.07           estimate D2E/DX2                !
 ! R8    R(3,25)                 1.4294         estimate D2E/DX2                !
 ! R9    R(7,8)                  1.07           estimate D2E/DX2                !
 ! R10   R(7,9)                  1.07           estimate D2E/DX2                !
 ! R11   R(7,10)                 1.54           estimate D2E/DX2                !
 ! R12   R(7,24)                 1.47           estimate D2E/DX2                !
 ! R13   R(10,11)                1.07           estimate D2E/DX2                !
 ! R14   R(10,12)                1.07           estimate D2E/DX2                !
 ! R15   R(10,13)                1.54           estimate D2E/DX2                !
 ! R16   R(13,14)                1.07           estimate D2E/DX2                !
 ! R17   R(13,15)                1.07           estimate D2E/DX2                !
 ! R18   R(13,16)                1.54           estimate D2E/DX2                !
 ! R19   R(16,17)                1.07           estimate D2E/DX2                !
 ! R20   R(16,18)                1.07           estimate D2E/DX2                !
 ! R21   R(16,19)                1.07           estimate D2E/DX2                !
 ! R22   R(20,21)                1.07           estimate D2E/DX2                !
 ! R23   R(20,22)                1.07           estimate D2E/DX2                !
 ! R24   R(20,23)                1.07           estimate D2E/DX2                !
 ! R25   R(20,25)                1.47           estimate D2E/DX2                !
 ! A1    A(3,1,6)              130.3829         estimate D2E/DX2                !
 ! A2    A(3,1,24)              99.5093         estimate D2E/DX2                !
 ! A3    A(6,1,24)             130.0531         estimate D2E/DX2                !
 ! A4    A(4,2,24)             124.7087         estimate D2E/DX2                !
 ! A5    A(4,2,25)             124.7254         estimate D2E/DX2                !
 ! A6    A(24,2,25)            110.5025         estimate D2E/DX2                !
 ! A7    A(1,3,5)              128.6707         estimate D2E/DX2                !
 ! A8    A(1,3,25)             102.0233         estimate D2E/DX2                !
 ! A9    A(5,3,25)             128.8426         estimate D2E/DX2                !
 ! A10   A(8,7,9)              109.4712         estimate D2E/DX2                !
 ! A11   A(8,7,10)             109.4712         estimate D2E/DX2                !
 ! A12   A(8,7,24)             109.4712         estimate D2E/DX2                !
 ! A13   A(9,7,10)             109.4712         estimate D2E/DX2                !
 ! A14   A(9,7,24)             109.4712         estimate D2E/DX2                !
 ! A15   A(10,7,24)            109.4712         estimate D2E/DX2                !
 ! A16   A(7,10,11)            109.4712         estimate D2E/DX2                !
 ! A17   A(7,10,12)            109.4712         estimate D2E/DX2                !
 ! A18   A(7,10,13)            109.4712         estimate D2E/DX2                !
 ! A19   A(11,10,12)           109.4712         estimate D2E/DX2                !
 ! A20   A(11,10,13)           109.4712         estimate D2E/DX2                !
 ! A21   A(12,10,13)           109.4712         estimate D2E/DX2                !
 ! A22   A(10,13,14)           109.4712         estimate D2E/DX2                !
 ! A23   A(10,13,15)           109.4712         estimate D2E/DX2                !
 ! A24   A(10,13,16)           109.4712         estimate D2E/DX2                !
 ! A25   A(14,13,15)           109.4712         estimate D2E/DX2                !
 ! A26   A(14,13,16)           109.4712         estimate D2E/DX2                !
 ! A27   A(15,13,16)           109.4712         estimate D2E/DX2                !
 ! A28   A(13,16,17)           109.4712         estimate D2E/DX2                !
 ! A29   A(13,16,18)           109.4712         estimate D2E/DX2                !
 ! A30   A(13,16,19)           109.4712         estimate D2E/DX2                !
 ! A31   A(17,16,18)           109.4712         estimate D2E/DX2                !
 ! A32   A(17,16,19)           109.4712         estimate D2E/DX2                !
 ! A33   A(18,16,19)           109.4712         estimate D2E/DX2                !
 ! A34   A(21,20,22)           109.4712         estimate D2E/DX2                !
 ! A35   A(21,20,23)           109.4712         estimate D2E/DX2                !
 ! A36   A(21,20,25)           109.4712         estimate D2E/DX2                !
 ! A37   A(22,20,23)           109.4712         estimate D2E/DX2                !
 ! A38   A(22,20,25)           109.4712         estimate D2E/DX2                !
 ! A39   A(23,20,25)           109.4712         estimate D2E/DX2                !
 ! A40   A(1,24,2)              99.2736         estimate D2E/DX2                !
 ! A41   A(1,24,7)             114.4737         estimate D2E/DX2                !
 ! A42   A(2,24,7)             112.3046         estimate D2E/DX2                !
 ! A43   A(2,25,3)             104.8423         estimate D2E/DX2                !
 ! A44   A(2,25,20)            127.3583         estimate D2E/DX2                !
 ! A45   A(3,25,20)            127.7501         estimate D2E/DX2                !
 ! D1    D(6,1,3,5)            -58.789          estimate D2E/DX2                !
 ! D2    D(6,1,3,25)           128.5631         estimate D2E/DX2                !
 ! D3    D(24,1,3,5)           123.7399         estimate D2E/DX2                !
 ! D4    D(24,1,3,25)          -48.908          estimate D2E/DX2                !
 ! D5    D(3,1,24,2)            37.0391         estimate D2E/DX2                !
 ! D6    D(3,1,24,7)           156.8304         estimate D2E/DX2                !
 ! D7    D(6,1,24,2)          -140.4443         estimate D2E/DX2                !
 ! D8    D(6,1,24,7)           -20.653          estimate D2E/DX2                !
 ! D9    D(4,2,24,1)           162.6875         estimate D2E/DX2                !
 ! D10   D(4,2,24,7)            41.3088         estimate D2E/DX2                !
 ! D11   D(25,2,24,1)          -14.5281         estimate D2E/DX2                !
 ! D12   D(25,2,24,7)         -135.9067         estimate D2E/DX2                !
 ! D13   D(4,2,25,3)           166.7252         estimate D2E/DX2                !
 ! D14   D(4,2,25,20)          -15.6862         estimate D2E/DX2                !
 ! D15   D(24,2,25,3)          -16.0598         estimate D2E/DX2                !
 ! D16   D(24,2,25,20)         161.5288         estimate D2E/DX2                !
 ! D17   D(1,3,25,2)            40.527          estimate D2E/DX2                !
 ! D18   D(1,3,25,20)         -137.0489         estimate D2E/DX2                !
 ! D19   D(5,3,25,2)          -132.1031         estimate D2E/DX2                !
 ! D20   D(5,3,25,20)           50.321          estimate D2E/DX2                !
 ! D21   D(8,7,10,11)          180.0            estimate D2E/DX2                !
 ! D22   D(8,7,10,12)          -60.0            estimate D2E/DX2                !
 ! D23   D(8,7,10,13)           60.0            estimate D2E/DX2                !
 ! D24   D(9,7,10,11)           60.0            estimate D2E/DX2                !
 ! D25   D(9,7,10,12)         -180.0            estimate D2E/DX2                !
 ! D26   D(9,7,10,13)          -60.0            estimate D2E/DX2                !
 ! D27   D(24,7,10,11)         -60.0            estimate D2E/DX2                !
 ! D28   D(24,7,10,12)          60.0            estimate D2E/DX2                !
 ! D29   D(24,7,10,13)         180.0            estimate D2E/DX2                !
 ! D30   D(8,7,24,1)          -176.108          estimate D2E/DX2                !
 ! D31   D(8,7,24,2)           -63.892          estimate D2E/DX2                !
 ! D32   D(9,7,24,1)           -56.108          estimate D2E/DX2                !
 ! D33   D(9,7,24,2)            56.108          estimate D2E/DX2                !
 ! D34   D(10,7,24,1)           63.892          estimate D2E/DX2                !
 ! D35   D(10,7,24,2)          176.108          estimate D2E/DX2                !
 ! D36   D(7,10,13,14)         -60.0            estimate D2E/DX2                !
 ! D37   D(7,10,13,15)          60.0            estimate D2E/DX2                !
 ! D38   D(7,10,13,16)         180.0            estimate D2E/DX2                !
 ! D39   D(11,10,13,14)        180.0            estimate D2E/DX2                !
 ! D40   D(11,10,13,15)        -60.0            estimate D2E/DX2                !
 ! D41   D(11,10,13,16)         60.0            estimate D2E/DX2                !
 ! D42   D(12,10,13,14)         60.0            estimate D2E/DX2                !
 ! D43   D(12,10,13,15)        180.0            estimate D2E/DX2                !
 ! D44   D(12,10,13,16)        -60.0            estimate D2E/DX2                !
 ! D45   D(10,13,16,17)         60.0            estimate D2E/DX2                !
 ! D46   D(10,13,16,18)        180.0            estimate D2E/DX2                !
 ! D47   D(10,13,16,19)        -60.0            estimate D2E/DX2                !
 ! D48   D(14,13,16,17)        -60.0            estimate D2E/DX2                !
 ! D49   D(14,13,16,18)         60.0            estimate D2E/DX2                !
 ! D50   D(14,13,16,19)        180.0            estimate D2E/DX2                !
 ! D51   D(15,13,16,17)        180.0            estimate D2E/DX2                !
 ! D52   D(15,13,16,18)        -60.0            estimate D2E/DX2                !
 ! D53   D(15,13,16,19)         60.0            estimate D2E/DX2                !
 ! D54   D(21,20,25,2)         151.4742         estimate D2E/DX2                !
 ! D55   D(21,20,25,3)         -31.4742         estimate D2E/DX2                !
 ! D56   D(22,20,25,2)         -88.5258         estimate D2E/DX2                !
 ! D57   D(22,20,25,3)          88.5258         estimate D2E/DX2                !
 ! D58   D(23,20,25,2)          31.4742         estimate D2E/DX2                !
 ! D59   D(23,20,25,3)        -151.4742         estimate D2E/DX2                !
 --------------------------------------------------------------------------------
 Trust Radius=3.00D-01 FncErr=1.00D-07 GrdErr=1.00D-06
 Number of steps in this run= 139 maximum allowed number of steps= 150.
 GradGradGradGradGradGradGradGradGradGradGradGradGradGradGradGradGradGrad

                          Input orientation:                          
 ---------------------------------------------------------------------
 Center     Atomic      Atomic             Coordinates (Angstroms)
 Number     Number       Type             X           Y           Z
 ---------------------------------------------------------------------
      1          6           0       -1.147166    0.851999    0.004358
      2          6           0        0.504714    2.420757    0.231794
      3          6           0       -1.421553    2.107393   -0.744190
      4          1           0        1.403438    2.890050    0.573788
      5          1           0       -1.968073    2.236911   -1.654926
      6          1           0       -1.820315    0.136260    0.428020
      7          6           0        0.932630    0.140732    1.142794
      8          1           0        1.991622    0.293819    1.141387
      9          1           0        0.526401    0.466530    2.077531
     10          6           0        0.630111   -1.356316    0.945493
     11          1           0       -0.428880   -1.509403    0.946899
     12          1           0        1.036341   -1.682114    0.010756
     13          6           0        1.267080   -2.164129    2.091489
     14          1           0        2.326071   -2.011042    2.090083
     15          1           0        0.860850   -1.838332    3.026227
     16          6           0        0.964560   -3.661178    1.894188
     17          1           0        1.370790   -3.986975    0.959451
     18          1           0        1.407129   -4.222451    2.690433
     19          1           0       -0.094431   -3.814265    1.895595
     20          6           0       -0.992839    4.423095    0.365211
     21          1           0       -1.670749    4.834131   -0.353390
     22          1           0       -1.463237    4.398444    1.325950
     23          1           0       -0.113405    5.030631    0.414160
     24          7           0        0.324615    0.911827    0.048888
     25          7           0       -0.623453    3.057617   -0.034691
 ---------------------------------------------------------------------
                    Distance matrix (angstroms):
                    1          2          3          4          5
     1  C    0.000000
     2  C    2.289418   0.000000
     3  C    1.487154   2.182028   0.000000
     4  H    3.314133   1.070000   3.214062   0.000000
     5  H    2.311947   3.115797   1.070000   4.094001   0.000000
     6  H    1.070000   3.265454   2.327756   4.242309   2.961964
     7  C    2.475376   2.492297   3.601478   2.846783   4.542608
     8  H    3.384728   2.749930   4.300490   2.721864   5.222467
     9  H    2.692110   2.688163   3.801193   2.983938   4.825753
    10  C    2.986821   3.845955   4.365963   4.332184   5.140430
    11  H    2.642071   4.102332   4.114170   4.780354   4.813884
    12  H    3.345066   4.143070   4.579470   4.621303   5.211502
    13  C    4.391096   5.006081   5.789277   5.278895   6.623519
    14  H    4.960910   5.139204   6.248144   5.212591   7.107030
    15  H    4.516824   5.106420   5.915585   5.354106   6.820822
    16  C    5.329128   6.321783   6.777240   6.697361   7.482246
    17  H    5.537867   6.506812   6.916711   6.887908   7.531251
    18  H    6.284064   7.140830   7.737247   7.420772   8.485134
    19  H    5.143835   6.480949   6.617836   6.995614   7.261781
    20  C    3.592598   2.503962   2.603276   2.852346   3.132322
    21  H    4.032307   3.301432   2.765849   3.753630   2.920265
    22  H    3.797865   2.996875   3.088063   3.325481   3.716545
    23  H    4.324068   2.688266   3.405635   2.628380   3.940277
    24  N    1.473669   1.530608   2.259968   2.313600   3.148849
    25  N    2.267279   1.322636   1.429433   2.122878   2.259806
                    6          7          8          9         10
     6  H    0.000000
     7  C    2.844227   0.000000
     8  H    3.881311   1.070000   0.000000
     9  H    2.887393   1.070000   1.747303   0.000000
    10  C    2.915502   1.540000   2.148263   2.148263   0.000000
    11  H    2.216649   2.148263   3.024610   2.468846   1.070000
    12  H    3.411902   2.148263   2.468846   3.024610   1.070000
    13  C    4.194154   2.514809   2.732978   2.732978   1.540000
    14  H    4.956398   2.732978   2.514809   3.062243   2.148263
    15  H    4.223546   2.732978   3.062243   2.514809   2.148263
    16  C    4.932111   3.875582   4.154945   4.154945   2.514809
    17  H    5.240863   4.154945   4.329403   4.668704   2.732978
    18  H    5.876502   4.653783   4.810184   4.810184   3.444314
    19  H    4.554020   4.154945   4.668704   4.329403   2.732978
    20  C    4.366419   4.759275   5.153676   4.571055   6.030945
    21  H    4.764762   5.571727   6.021773   5.460109   6.730727
    22  H    4.370354   4.888951   5.368246   4.470289   6.135481
    23  H    5.183493   5.053336   5.234251   4.899712   6.451994
    24  N    2.312135   1.470000   2.086720   2.086720   2.457987
    25  N    3.190753   3.509428   3.982506   3.535163   4.692013
                   11         12         13         14         15
    11  H    0.000000
    12  H    1.747303   0.000000
    13  C    2.148263   2.148263   0.000000
    14  H    3.024610   2.468846   1.070000   0.000000
    15  H    2.468846   3.024610   1.070000   1.747303   0.000000
    16  C    2.732978   2.732978   1.540000   2.148263   2.148263
    17  H    3.062243   2.514809   2.148263   2.468846   3.024610
    18  H    3.710993   3.710993   2.148263   2.468846   2.468846
    19  H    2.514809   3.062243   2.148263   3.024610   2.468846
    20  C    5.987566   6.443352   7.174873   7.442343   7.051428
    21  H    6.593437   7.065577   7.973953   8.294669   7.896364
    22  H    6.009679   6.704536   7.148990   7.484937   6.869476
    23  H    6.569276   6.822433   7.515567   7.638385   7.413145
    24  N    2.690081   2.690081   3.810770   4.088455   4.088455
    25  N    4.675367   5.022153   5.946545   6.237440   5.961769
                   16         17         18         19         20
    16  C    0.000000
    17  H    1.070000   0.000000
    18  H    1.070000   1.747303   0.000000
    19  H    1.070000   1.747303   1.747303   0.000000
    20  C    8.457225   8.756092   9.268871   8.426347   0.000000
    21  H    9.174243   9.422655  10.037921   9.073999   1.070000
    22  H    8.436504   8.858967   9.188071   8.345461   1.070000
    23  H    8.882569   9.155184   9.649506   8.968121   1.070000
    24  N    4.972628   5.091352   5.874555   5.091352   3.763609
    25  N    7.168303   7.388613   8.034236   7.157418   1.470000
                   21         22         23         24         25
    21  H    0.000000
    22  H    1.747303   0.000000
    23  H    1.747303   1.747303   0.000000
    24  N    4.419024   4.121141   4.158105   0.000000
    25  N    2.086720   2.086720   2.086720   2.347389   0.000000
 Stoichiometry    C8H15N2(1+)
 Framework group  C1[X(C8H15N2)]
 Deg. of freedom    69
 Full point group                 C1      NOp   1
 Largest Abelian subgroup         C1      NOp   1
 Largest concise Abelian subgroup C1      NOp   1
                         Standard orientation:                         
 ---------------------------------------------------------------------
 Center     Atomic      Atomic             Coordinates (Angstroms)
 Number     Number       Type             X           Y           Z
 ---------------------------------------------------------------------
      1          6           0        0.763187    1.175714    0.177265
      2          6           0        1.679114   -0.816067   -0.482523
      3          6           0        2.198943    1.283546   -0.195033
      4          1           0        1.764656   -1.862617   -0.688231
      5          1           0        2.719421    2.117857   -0.616848
      6          1           0        0.179469    1.753827    0.862799
      7          6           0       -0.786913   -0.729254   -0.132210
      8          1           0       -0.944373   -1.602061   -0.730804
      9          1           0       -0.626166   -1.018804    0.885248
     10          6           0       -2.025650    0.181748   -0.217092
     11          1           0       -1.868190    1.054555    0.381502
     12          1           0       -2.186397    0.471298   -1.234550
     13          6           0       -3.259659   -0.580176    0.300879
     14          1           0       -3.417120   -1.452983   -0.297715
     15          1           0       -3.098913   -0.869727    1.318337
     16          6           0       -4.498397    0.330826    0.215998
     17          1           0       -4.659143    0.620376   -0.801461
     18          1           0       -5.355793   -0.198563    0.575886
     19          1           0       -4.340936    1.203633    0.814591
     20          6           0        3.907921   -0.505175    0.615472
     21          1           0        4.672381    0.223638    0.444204
     22          1           0        3.757223   -0.623358    1.668194
     23          1           0        4.205636   -1.440951    0.190516
     24          7           0        0.391005   -0.001963   -0.626637
     25          7           0        2.655705   -0.058478   -0.011678
 ---------------------------------------------------------------------
 Rotational constants (GHZ):      4.5884403      0.5042886      0.4777065
 Standard basis: 6-311+G(d) (5D, 7F)
 There are   265 symmetry adapted basis functions of A   symmetry.
 Integral buffers will be    131072 words long.
 Raffenetti 2 integral format.
 Two-electron integral symmetry is turned on.
   265 basis functions,   435 primitive gaussians,   275 cartesian basis functions
    38 alpha electrons       38 beta electrons
       nuclear repulsion energy       524.4906469047 Hartrees.
 NAtoms=   25 NActive=   25 NUniq=   25 SFac= 7.50D-01 NAtFMM=   80 NAOKFM=F Big=F
 One-electron integrals computed using PRISM.
 NBasis=   265 RedAO= T  NBF=   265
 NBsUse=   265 1.00D-06 NBFU=   265
 Harris functional with IExCor= 1009 diagonalized for initial guess.
 ExpMin= 4.38D-02 ExpMax= 6.29D+03 ExpMxC= 9.49D+02 IAcc=2 IRadAn=         0 AccDes= 0.00D+00
 HarFok:  IExCor= 1009 AccDes= 0.00D+00 IRadAn=         0 IDoV= 1
 ScaDFX=  1.000000  1.000000  1.000000  1.000000
 FoFCou: FMM=F IPFlag=           0 FMFlag=      100000 FMFlg1=           0
         NFxFlg=           0 DoJE=T BraDBF=F KetDBF=T FulRan=T
         Omega=  0.000000  0.000000  1.000000  0.000000  0.000000 ICntrl=     500 IOpCl=  0
         NMat0=    1 NMatS0=    1 NMatT0=    0 NMatD0=    1 NMtDS0=    0 NMtDT0=    0
         I1Cent=           4 NGrid=           0.
 Petite list used in FoFCou.
 Initial guess orbital symmetries:
       Occupied  (A) (A) (A) (A) (A) (A) (A) (A) (A) (A) (A) (A)
                 (A) (A) (A) (A) (A) (A) (A) (A) (A) (A) (A) (A)
                 (A) (A) (A) (A) (A) (A) (A) (A) (A) (A) (A) (A)
                 (A) (A)
       Virtual   (A) (A) (A) (A) (A) (A) (A) (A) (A) (A) (A) (A)
                 (A) (A) (A) (A) (A) (A) (A) (A) (A) (A) (A) (A)
                 (A) (A) (A) (A) (A) (A) (A) (A) (A) (A) (A) (A)
                 (A) (A) (A) (A) (A) (A) (A) (A) (A) (A) (A) (A)
                 (A) (A) (A) (A) (A) (A) (A) (A) (A) (A) (A) (A)
                 (A) (A) (A) (A) (A) (A) (A) (A) (A) (A) (A) (A)
                 (A) (A) (A) (A) (A) (A) (A) (A) (A) (A) (A) (A)
                 (A) (A) (A) (A) (A) (A) (A) (A) (A) (A) (A) (A)
                 (A) (A) (A) (A) (A) (A) (A) (A) (A) (A) (A) (A)
                 (A) (A) (A) (A) (A) (A) (A) (A) (A) (A) (A) (A)
                 (A) (A) (A) (A) (A) (A) (A) (A) (A) (A) (A) (A)
                 (A) (A) (A) (A) (A) (A) (A) (A) (A) (A) (A) (A)
                 (A) (A) (A) (A) (A) (A) (A) (A) (A) (A) (A) (A)
                 (A) (A) (A) (A) (A) (A) (A) (A) (A) (A) (A) (A)
                 (A) (A) (A) (A) (A) (A) (A) (A) (A) (A) (A) (A)
                 (A) (A) (A) (A) (A) (A) (A) (A) (A) (A) (A) (A)
                 (A) (A) (A) (A) (A) (A) (A) (A) (A) (A) (A) (A)
                 (A) (A) (A) (A) (A) (A) (A) (A) (A) (A) (A) (A)
                 (A) (A) (A) (A) (A) (A) (A) (A) (A) (A) (A)
 The electronic state of the initial guess is 1-A.
 Requested convergence on RMS density matrix=1.00D-08 within 128 cycles.
 Requested convergence on MAX density matrix=1.00D-06.
 Requested convergence on             energy=1.00D-06.
 No special actions if energy rises.
 SCF Done:  E(RM062X) =  -422.897797514     A.U. after   14 cycles
             Convg  =    0.9102D-08             -V/T =  2.0044

 **********************************************************************

            Population analysis using the SCF density.

 **********************************************************************

 Orbital symmetries:
       Occupied  (A) (A) (A) (A) (A) (A) (A) (A) (A) (A) (A) (A)
                 (A) (A) (A) (A) (A) (A) (A) (A) (A) (A) (A) (A)
                 (A) (A) (A) (A) (A) (A) (A) (A) (A) (A) (A) (A)
                 (A) (A)
       Virtual   (A) (A) (A) (A) (A) (A) (A) (A) (A) (A) (A) (A)
                 (A) (A) (A) (A) (A) (A) (A) (A) (A) (A) (A) (A)
                 (A) (A) (A) (A) (A) (A) (A) (A) (A) (A) (A) (A)
                 (A) (A) (A) (A) (A) (A) (A) (A) (A) (A) (A) (A)
                 (A) (A) (A) (A) (A) (A) (A) (A) (A) (A) (A) (A)
                 (A) (A) (A) (A) (A) (A) (A) (A) (A) (A) (A) (A)
                 (A) (A) (A) (A) (A) (A) (A) (A) (A) (A) (A) (A)
                 (A) (A) (A) (A) (A) (A) (A) (A) (A) (A) (A) (A)
                 (A) (A) (A) (A) (A) (A) (A) (A) (A) (A) (A) (A)
                 (A) (A) (A) (A) (A) (A) (A) (A) (A) (A) (A) (A)
                 (A) (A) (A) (A) (A) (A) (A) (A) (A) (A) (A) (A)
                 (A) (A) (A) (A) (A) (A) (A) (A) (A) (A) (A) (A)
                 (A) (A) (A) (A) (A) (A) (A) (A) (A) (A) (A) (A)
                 (A) (A) (A) (A) (A) (A) (A) (A) (A) (A) (A) (A)
                 (A) (A) (A) (A) (A) (A) (A) (A) (A) (A) (A) (A)
                 (A) (A) (A) (A) (A) (A) (A) (A) (A) (A) (A) (A)
                 (A) (A) (A) (A) (A) (A) (A) (A) (A) (A) (A) (A)
                 (A) (A) (A) (A) (A) (A) (A) (A) (A) (A) (A) (A)
                 (A) (A) (A) (A) (A) (A) (A) (A) (A) (A) (A)
 The electronic state is 1-A.
 Alpha  occ. eigenvalues --  -15.03513 -14.99663 -10.83613 -10.78604 -10.77635
 Alpha  occ. eigenvalues --  -10.75531 -10.72118 -10.66156 -10.63978 -10.61256
 Alpha  occ. eigenvalues --   -1.32936  -1.21114  -1.05443  -1.02103  -1.00953
 Alpha  occ. eigenvalues --   -0.94706  -0.89115  -0.85240  -0.84279  -0.79724
 Alpha  occ. eigenvalues --   -0.78731  -0.75572  -0.72738  -0.71161  -0.70654
 Alpha  occ. eigenvalues --   -0.68555  -0.66417  -0.65062  -0.64170  -0.60632
 Alpha  occ. eigenvalues --   -0.59834  -0.57477  -0.55961  -0.52230  -0.51400
 Alpha  occ. eigenvalues --   -0.51215  -0.50180  -0.43884
 Alpha virt. eigenvalues --   -0.20700  -0.20003  -0.11828  -0.09777  -0.09647
 Alpha virt. eigenvalues --   -0.08814  -0.08178  -0.07228  -0.06907  -0.06459
 Alpha virt. eigenvalues --   -0.05981  -0.05196  -0.04296  -0.03702  -0.03468
 Alpha virt. eigenvalues --   -0.02881  -0.02404  -0.01225  -0.00902  -0.00377
 Alpha virt. eigenvalues --   -0.00001   0.00280   0.00688   0.01022   0.01506
 Alpha virt. eigenvalues --    0.03093   0.03441   0.03791   0.04314   0.04769
 Alpha virt. eigenvalues --    0.04851   0.06184   0.06682   0.07031   0.07400
 Alpha virt. eigenvalues --    0.07637   0.08061   0.08719   0.09132   0.10087
 Alpha virt. eigenvalues --    0.10417   0.11138   0.11250   0.12046   0.12691
 Alpha virt. eigenvalues --    0.13114   0.13734   0.14017   0.14317   0.15158
 Alpha virt. eigenvalues --    0.15879   0.16391   0.16927   0.17648   0.18181
 Alpha virt. eigenvalues --    0.18746   0.19021   0.19383   0.20097   0.20645
 Alpha virt. eigenvalues --    0.21604   0.22320   0.23938   0.25100   0.25318
 Alpha virt. eigenvalues --    0.26265   0.27195   0.32628   0.33745   0.34589
 Alpha virt. eigenvalues --    0.34718   0.36569   0.37528   0.39155   0.39735
 Alpha virt. eigenvalues --    0.41549   0.42917   0.43726   0.44263   0.46626
 Alpha virt. eigenvalues --    0.47988   0.48443   0.50476   0.50673   0.50859
 Alpha virt. eigenvalues --    0.52871   0.53292   0.54564   0.54715   0.56143
 Alpha virt. eigenvalues --    0.56810   0.57264   0.59474   0.59961   0.61285
 Alpha virt. eigenvalues --    0.61626   0.62617   0.63806   0.64193   0.64861
 Alpha virt. eigenvalues --    0.65601   0.67054   0.68508   0.69254   0.70630
 Alpha virt. eigenvalues --    0.70921   0.72999   0.76213   0.77517   0.78169
 Alpha virt. eigenvalues --    0.80237   0.82153   0.83819   0.85019   0.86283
 Alpha virt. eigenvalues --    0.89517   0.92367   0.94437   0.95463   0.98810
 Alpha virt. eigenvalues --    1.04757   1.09035   1.09250   1.13399   1.17453
 Alpha virt. eigenvalues --    1.19718   1.25614   1.27297   1.29323   1.34316
 Alpha virt. eigenvalues --    1.34901   1.39043   1.41267   1.42797   1.44547
 Alpha virt. eigenvalues --    1.45889   1.46517   1.47359   1.50003   1.51144
 Alpha virt. eigenvalues --    1.53075   1.53975   1.55733   1.56434   1.60150
 Alpha virt. eigenvalues --    1.60287   1.61180   1.62972   1.63769   1.65811
 Alpha virt. eigenvalues --    1.67040   1.69097   1.72372   1.73782   1.74196
 Alpha virt. eigenvalues --    1.76853   1.79455   1.85404   1.87570   1.97493
 Alpha virt. eigenvalues --    2.05399   2.09442   2.10759   2.14204   2.16366
 Alpha virt. eigenvalues --    2.24368   2.26921   2.31513   2.32234   2.38306
 Alpha virt. eigenvalues --    2.39148   2.42910   2.44902   2.45311   2.47122
 Alpha virt. eigenvalues --    2.47570   2.48420   2.49291   2.52105   2.52578
 Alpha virt. eigenvalues --    2.53297   2.55168   2.58436   2.58802   2.64130
 Alpha virt. eigenvalues --    2.68067   2.77173   2.82244   2.85209   2.87450
 Alpha virt. eigenvalues --    2.91505   2.93157   3.00175   3.01896   3.07181
 Alpha virt. eigenvalues --    3.11137   3.12504   3.15201   3.18503   3.21495
 Alpha virt. eigenvalues --    3.22813   3.23373   3.29569   3.30505   3.32463
 Alpha virt. eigenvalues --    3.33736   3.41745   3.61324   3.66755   3.82090
 Alpha virt. eigenvalues --    3.83886   3.95736   4.06995   4.33217   4.57599
 Alpha virt. eigenvalues --    4.61447   4.72659  23.40082  23.44095  23.46631
 Alpha virt. eigenvalues --   23.57020  23.60103  23.62376  23.64428  23.68985
 Alpha virt. eigenvalues --   35.34319  35.37277
          Condensed to atoms (all electrons):
              1          2          3          4          5          6
     1  C    5.774903  -0.192650   0.307252   0.003510   0.040770   0.325596
     2  C   -0.192650   6.105454  -0.053437   0.378022  -0.000963   0.005389
     3  C    0.307252  -0.053437   5.958026  -0.003495   0.325834   0.008633
     4  H    0.003510   0.378022  -0.003495   0.328836  -0.000167   0.000011
     5  H    0.040770  -0.000963   0.325834  -0.000167   0.345892  -0.001161
     6  H    0.325596   0.005389   0.008633   0.000011  -0.001161   0.344164
     7  C   -0.498032  -0.217668   0.029373   0.026811  -0.002532   0.023174
     8  H    0.005741  -0.007796  -0.005532   0.000736   0.000020   0.000036
     9  H    0.005172   0.021340   0.015514  -0.000160  -0.000011   0.001157
    10  C    0.326641  -0.242551  -0.155354  -0.003109   0.003864  -0.009651
    11  H    0.018644   0.008823  -0.006004  -0.000012   0.000016   0.000816
    12  H    0.005568  -0.001342   0.002628   0.000028  -0.000011   0.000672
    13  C   -0.056051  -0.043044   0.016370   0.001254  -0.000080   0.002864
    14  H   -0.003385   0.000988  -0.001606  -0.000010   0.000000  -0.000025
    15  H    0.006269  -0.001659   0.001242   0.000007   0.000000   0.000128
    16  C    0.002129  -0.026083  -0.005988   0.000008   0.000035   0.000496
    17  H    0.002254   0.000017   0.000386   0.000000   0.000000   0.000009
    18  H   -0.000086   0.000135  -0.000030   0.000000   0.000000   0.000001
    19  H   -0.002709  -0.000026  -0.000519   0.000000   0.000000  -0.000041
    20  C   -0.031102  -0.056106  -0.065083  -0.000851  -0.004347   0.000438
    21  H    0.008875  -0.004588   0.007936   0.000055  -0.000584   0.000042
    22  H    0.005003  -0.014236  -0.013662  -0.000046  -0.000080  -0.000144
    23  H   -0.005983   0.024671   0.006898   0.001493   0.000120   0.000010
    24  N    0.332807   0.099700  -0.238128  -0.027408   0.016556  -0.050118
    25  N   -0.184767   0.469779   0.275601  -0.036436  -0.046364   0.013330
              7          8          9         10         11         12
     1  C   -0.498032   0.005741   0.005172   0.326641   0.018644   0.005568
     2  C   -0.217668  -0.007796   0.021340  -0.242551   0.008823  -0.001342
     3  C    0.029373  -0.005532   0.015514  -0.155354  -0.006004   0.002628
     4  H    0.026811   0.000736  -0.000160  -0.003109  -0.000012   0.000028
     5  H   -0.002532   0.000020  -0.000011   0.003864   0.000016  -0.000011
     6  H    0.023174   0.000036   0.001157  -0.009651   0.000816   0.000672
     7  C    6.968816   0.391732   0.373277  -0.670164  -0.012789  -0.078613
     8  H    0.391732   0.392904  -0.029112   0.012855   0.004430  -0.003534
     9  H    0.373277  -0.029112   0.408087  -0.037132  -0.005400   0.003821
    10  C   -0.670164   0.012855  -0.037132   6.991746   0.383796   0.477364
    11  H   -0.012789   0.004430  -0.005400   0.383796   0.463442  -0.028635
    12  H   -0.078613  -0.003534   0.003821   0.477364  -0.028635   0.382864
    13  C    0.452386  -0.009850  -0.030429  -0.595091  -0.052467  -0.068463
    14  H    0.010313   0.001143  -0.000410  -0.079397   0.006079  -0.006235
    15  H   -0.022034   0.000577   0.003067   0.005357  -0.006689   0.005305
    16  C   -0.320943   0.009253   0.001182   0.261003   0.001171  -0.000307
    17  H    0.005710   0.000091   0.000003  -0.027584  -0.000213   0.004535
    18  H    0.009352  -0.000036  -0.000027   0.050768  -0.000230  -0.000133
    19  H    0.003221  -0.000063   0.000028  -0.054097   0.003568  -0.000712
    20  C   -0.009090   0.000269  -0.000898  -0.016020  -0.000239   0.000186
    21  H   -0.001414  -0.000001   0.000017  -0.000257   0.000000   0.000000
    22  H   -0.002308   0.000005  -0.000039   0.000210  -0.000001  -0.000001
    23  H    0.006348  -0.000015   0.000038  -0.000409   0.000000   0.000000
    24  N    0.163721  -0.060146  -0.048003  -0.090183  -0.017328   0.009213
    25  N    0.009240  -0.001148   0.008132  -0.035039  -0.000492   0.001233
             13         14         15         16         17         18
     1  C   -0.056051  -0.003385   0.006269   0.002129   0.002254  -0.000086
     2  C   -0.043044   0.000988  -0.001659  -0.026083   0.000017   0.000135
     3  C    0.016370  -0.001606   0.001242  -0.005988   0.000386  -0.000030
     4  H    0.001254  -0.000010   0.000007   0.000008   0.000000   0.000000
     5  H   -0.000080   0.000000   0.000000   0.000035   0.000000   0.000000
     6  H    0.002864  -0.000025   0.000128   0.000496   0.000009   0.000001
     7  C    0.452386   0.010313  -0.022034  -0.320943   0.005710   0.009352
     8  H   -0.009850   0.001143   0.000577   0.009253   0.000091  -0.000036
     9  H   -0.030429  -0.000410   0.003067   0.001182   0.000003  -0.000027
    10  C   -0.595091  -0.079397   0.005357   0.261003  -0.027584   0.050768
    11  H   -0.052467   0.006079  -0.006689   0.001171  -0.000213  -0.000230
    12  H   -0.068463  -0.006235   0.005305  -0.000307   0.004535  -0.000133
    13  C    6.237009   0.443352   0.377807  -0.215461   0.001462  -0.070798
    14  H    0.443352   0.440680  -0.036329  -0.041991  -0.007649  -0.003431
    15  H    0.377807  -0.036329   0.454129  -0.048104   0.006628  -0.003456
    16  C   -0.215461  -0.041991  -0.048104   6.302754   0.358530   0.366462
    17  H    0.001462  -0.007649   0.006628   0.358530   0.440430  -0.020761
    18  H   -0.070798  -0.003431  -0.003456   0.366462  -0.020761   0.405924
    19  H    0.027891   0.006217  -0.008951   0.368468  -0.033736  -0.021654
    20  C   -0.001738  -0.000065   0.000130  -0.000603   0.000004   0.000000
    21  H   -0.000026   0.000000   0.000000  -0.000001   0.000000   0.000000
    22  H    0.000023   0.000000   0.000000  -0.000001   0.000000   0.000000
    23  H    0.000045   0.000000   0.000000   0.000000   0.000000   0.000000
    24  N   -0.035333  -0.002306  -0.000486  -0.043759   0.000212   0.000246
    25  N   -0.002647  -0.000248   0.000442  -0.001146   0.000012   0.000001
             19         20         21         22         23         24
     1  C   -0.002709  -0.031102   0.008875   0.005003  -0.005983   0.332807
     2  C   -0.000026  -0.056106  -0.004588  -0.014236   0.024671   0.099700
     3  C   -0.000519  -0.065083   0.007936  -0.013662   0.006898  -0.238128
     4  H    0.000000  -0.000851   0.000055  -0.000046   0.001493  -0.027408
     5  H    0.000000  -0.004347  -0.000584  -0.000080   0.000120   0.016556
     6  H   -0.000041   0.000438   0.000042  -0.000144   0.000010  -0.050118
     7  C    0.003221  -0.009090  -0.001414  -0.002308   0.006348   0.163721
     8  H   -0.000063   0.000269  -0.000001   0.000005  -0.000015  -0.060146
     9  H    0.000028  -0.000898   0.000017  -0.000039   0.000038  -0.048003
    10  C   -0.054097  -0.016020  -0.000257   0.000210  -0.000409  -0.090183
    11  H    0.003568  -0.000239   0.000000  -0.000001   0.000000  -0.017328
    12  H   -0.000712   0.000186   0.000000  -0.000001   0.000000   0.009213
    13  C    0.027891  -0.001738  -0.000026   0.000023   0.000045  -0.035333
    14  H    0.006217  -0.000065   0.000000   0.000000   0.000000  -0.002306
    15  H   -0.008951   0.000130   0.000000   0.000000   0.000000  -0.000486
    16  C    0.368468  -0.000603  -0.000001  -0.000001   0.000000  -0.043759
    17  H   -0.033736   0.000004   0.000000   0.000000   0.000000   0.000212
    18  H   -0.021654   0.000000   0.000000   0.000000   0.000000   0.000246
    19  H    0.450225  -0.000005   0.000000   0.000000   0.000000  -0.000006
    20  C   -0.000005   5.745274   0.388411   0.407993   0.375923  -0.015394
    21  H    0.000000   0.388411   0.379046  -0.022318  -0.014086  -0.003091
    22  H    0.000000   0.407993  -0.022318   0.361357  -0.023297  -0.000342
    23  H    0.000000   0.375923  -0.014086  -0.023297   0.394087   0.004221
    24  N   -0.000006  -0.015394  -0.003091  -0.000342   0.004221   6.821159
    25  N   -0.000013   0.012036  -0.044349  -0.024666  -0.065258  -0.108826
             25
     1  C   -0.184767
     2  C    0.469779
     3  C    0.275601
     4  H   -0.036436
     5  H   -0.046364
     6  H    0.013330
     7  C    0.009240
     8  H   -0.001148
     9  H    0.008132
    10  C   -0.035039
    11  H   -0.000492
    12  H    0.001233
    13  C   -0.002647
    14  H   -0.000248
    15  H    0.000442
    16  C   -0.001146
    17  H    0.000012
    18  H    0.000001
    19  H   -0.000013
    20  C    0.012036
    21  H   -0.044349
    22  H   -0.024666
    23  H   -0.065258
    24  N   -0.108826
    25  N    6.408688
 Mulliken atomic charges:
              1
     1  C   -0.196369
     2  C   -0.252170
     3  C   -0.406857
     4  H    0.330925
     5  H    0.323191
     6  H    0.334175
     7  C   -0.637887
     8  H    0.297439
     9  H    0.310786
    10  C   -0.497570
    11  H    0.239716
    12  H    0.294567
    13  C   -0.378984
    14  H    0.274316
    15  H    0.266620
    16  C   -0.967105
    17  H    0.269661
    18  H    0.287751
    19  H    0.262912
    20  C   -0.729119
    21  H    0.306334
    22  H    0.326551
    23  H    0.295191
    24  N    0.293020
    25  N    0.352906
 Sum of Mulliken atomic charges =   1.00000
 Mulliken charges with hydrogens summed into heavy atoms:
              1
     1  C    0.137806
     2  C    0.078755
     3  C   -0.083666
     7  C   -0.029662
    10  C    0.036714
    13  C    0.161951
    16  C   -0.146781
    20  C    0.198957
    24  N    0.293020
    25  N    0.352906
 Sum of Mulliken charges with hydrogens summed into heavy atoms =   1.00000
 Electronic spatial extent (au):  <R**2>=           2387.7667
 Charge=              1.0000 electrons
 Dipole moment (field-independent basis, Debye):
    X=              7.2215    Y=             -1.0329    Z=              0.7621  Tot=              7.3346
 Quadrupole moment (field-independent basis, Debye-Ang):
   XX=            -20.2604   YY=            -51.2252   ZZ=            -59.4860
   XY=             -1.8521   XZ=              1.3408   YZ=              1.3845
 Traceless Quadrupole moment (field-independent basis, Debye-Ang):
   XX=             23.3968   YY=             -7.5680   ZZ=            -15.8288
   XY=             -1.8521   XZ=              1.3408   YZ=              1.3845
 Octapole moment (field-independent basis, Debye-Ang**2):
  XXX=            106.6378  YYY=             -1.4111  ZZZ=              4.1737  XYY=             20.9855
  XXY=            -13.0341  XXZ=             10.2410  XZZ=              5.0466  YZZ=             -2.3990
  YYZ=             -3.4807  XYZ=             -5.1659
 Hexadecapole moment (field-independent basis, Debye-Ang**3):
 XXXX=          -2140.2369 YYYY=           -271.5575 ZZZZ=           -143.4395 XXXY=            -14.9697
 XXXZ=             46.7793 YYYX=             -1.2935 YYYZ=              8.4445 ZZZX=             14.5612
 ZZZY=             -1.6700 XXYY=           -458.9196 XXZZ=           -460.7964 YYZZ=            -70.0459
 XXYZ=            -19.8677 YYXZ=            -13.2267 ZZXY=             -6.7965
 N-N= 5.244906469047D+02 E-N=-2.017183752246D+03  KE= 4.210640217312D+02
 Calling FoFJK, ICntrl=      2127 FMM=F ISym2X=0 I1Cent= 0 IOpClX= 0 NMat=1 NMatS=1 NMatT=0.
 ***** Axes restored to original set *****
 -------------------------------------------------------------------
 Center     Atomic                   Forces (Hartrees/Bohr)
 Number     Number              X              Y              Z
 -------------------------------------------------------------------
      1        6           0.049136962    0.077374480   -0.095031615
      2        6          -0.025392886   -0.055403636   -0.004493316
      3        6          -0.022705542   -0.062003066    0.091870513
      4        1           0.007324006   -0.001459392    0.007044146
      5        1          -0.021504641    0.016082579    0.006896513
      6        1           0.001919576   -0.020416547   -0.014541655
      7        6           0.000296092   -0.027498704   -0.008136529
      8        1           0.014367284    0.003851718   -0.001129456
      9        1          -0.003228629    0.005308837    0.014730734
     10        6           0.019623592    0.015453961    0.023144133
     11        1          -0.014854523   -0.005347815   -0.001506386
     12        1           0.003269990   -0.004343154   -0.015103970
     13        6          -0.017581269   -0.013377777   -0.023468610
     14        1           0.015451899    0.003723072    0.002410038
     15        1          -0.003272239    0.005735037    0.015123157
     16        6           0.006935576    0.024692539    0.006267171
     17        1           0.004709276   -0.007615604   -0.012155932
     18        1           0.004373645   -0.010517311    0.008787079
     19        1          -0.014251742   -0.005505598   -0.000158073
     20        6           0.007964922   -0.004595381   -0.016327130
     21        1          -0.008041135    0.003499323   -0.009449974
     22        1          -0.006559773   -0.005590533    0.011514432
     23        1           0.011739070    0.006834782    0.000034831
     24        7          -0.054375417    0.090972923    0.061646184
     25        7           0.044655907   -0.029854732   -0.047966286
 -------------------------------------------------------------------
 Cartesian Forces:  Max     0.095031615 RMS     0.028868741

 GradGradGradGradGradGradGradGradGradGradGradGradGradGradGradGradGradGrad
 Berny optimization.
 Internal  Forces:  Max     0.076834843 RMS     0.014527987
 Search for a local minimum.
 Step number   1 out of a maximum of  139
 All quantities printed in internal units (Hartrees-Bohrs-Radians)
 Mixed Optimization -- RFO/linear search
 Second derivative matrix not updated -- first step.
     Eigenvalues ---    0.00237   0.00237   0.00237   0.00766   0.00766
     Eigenvalues ---    0.00824   0.01021   0.01148   0.01486   0.01674
     Eigenvalues ---    0.03062   0.03840   0.03840   0.04026   0.04502
     Eigenvalues ---    0.04896   0.04896   0.05496   0.05720   0.05720
     Eigenvalues ---    0.07537   0.07537   0.07655   0.07655   0.08860
     Eigenvalues ---    0.11701   0.11701   0.12453   0.13064   0.15699
     Eigenvalues ---    0.15969   0.15981   0.16000   0.16000   0.16000
     Eigenvalues ---    0.16000   0.16000   0.16000   0.19059   0.21461
     Eigenvalues ---    0.21948   0.21948   0.21985   0.24960   0.27948
     Eigenvalues ---    0.28519   0.28519   0.28519   0.31719   0.32694
     Eigenvalues ---    0.35740   0.35740   0.37230   0.37230   0.37230
     Eigenvalues ---    0.37230   0.37230   0.37230   0.37230   0.37230
     Eigenvalues ---    0.37230   0.37230   0.37230   0.37230   0.37230
     Eigenvalues ---    0.37230   0.37230   0.38664   0.572831000.00000
     Eigenvalues --- 1000.000001000.000001000.000001000.000001000.00000
     Eigenvalues --- 1000.000001000.000001000.000001000.000001000.00000
     Eigenvalues --- 1000.000001000.000001000.000001000.000001000.00000
     Eigenvalues --- 1000.000001000.000001000.000001000.000001000.00000
     Eigenvalues --- 1000.000001000.000001000.000001000.000001000.00000
     Eigenvalues --- 1000.000001000.000001000.000001000.000001000.00000
     Eigenvalues --- 1000.000001000.000001000.000001000.000001000.00000
     Eigenvalues --- 1000.000001000.000001000.000001000.000001000.00000
     Eigenvalues --- 1000.000001000.000001000.000001000.000001000.00000
     Eigenvalues --- 1000.000001000.000001000.000001000.000001000.00000
     Eigenvalues --- 1000.000001000.000001000.000001000.000001000.00000
     Eigenvalues --- 1000.000001000.000001000.000001000.00000
 RFO step:  Lambda=-1.09346042D-01 EMin= 2.36824078D-03
 Linear search not attempted -- first point.
 Maximum step size (   0.300) exceeded in Quadratic search.
    -- Step size scaled by   0.392
 Iteration  1 RMS(Cart)=  0.04159582 RMS(Int)=  0.00117938
 Iteration  2 RMS(Cart)=  0.00200276 RMS(Int)=  0.00062255
 Iteration  3 RMS(Cart)=  0.00000268 RMS(Int)=  0.00062255
 Iteration  4 RMS(Cart)=  0.00000000 RMS(Int)=  0.00062255
 Variable       Old X    -DE/DX   Delta X   Delta X   Delta X     New X
                                 (Linear)    (Quad)   (Total)
    R1        2.81031  -0.07683   0.00000  -0.06415  -0.06484   2.74547
    R2        2.02201   0.00669   0.00000   0.00545   0.00545   2.02746
    R3        2.78483  -0.03161   0.00000  -0.02773  -0.02718   2.75765
    R4        2.02201   0.00776   0.00000   0.00632   0.00632   2.02833
    R5        2.89243  -0.07098   0.00000  -0.07601  -0.07587   2.81656
    R6        2.49942  -0.02257   0.00000  -0.01329  -0.01342   2.48600
    R7        2.02201   0.00706   0.00000   0.00575   0.00575   2.02776
    R8        2.70124  -0.01727   0.00000  -0.00800  -0.00788   2.69336
    R9        2.02201   0.01477   0.00000   0.01203   0.01203   2.03403
   R10        2.02201   0.01571   0.00000   0.01279   0.01279   2.03480
   R11        2.91018  -0.00411   0.00000  -0.00408  -0.00408   2.90609
   R12        2.77790   0.02120   0.00000   0.01781   0.01781   2.79571
   R13        2.02201   0.01547   0.00000   0.01259   0.01259   2.03460
   R14        2.02201   0.01576   0.00000   0.01283   0.01283   2.03484
   R15        2.91018  -0.00238   0.00000  -0.00236  -0.00236   2.90782
   R16        2.02201   0.01582   0.00000   0.01288   0.01288   2.03489
   R17        2.02201   0.01620   0.00000   0.01319   0.01319   2.03520
   R18        2.91018  -0.00172   0.00000  -0.00171  -0.00171   2.90847
   R19        2.02201   0.01472   0.00000   0.01199   0.01199   2.03399
   R20        2.02201   0.01387   0.00000   0.01129   0.01129   2.03330
   R21        2.02201   0.01489   0.00000   0.01213   0.01213   2.03413
   R22        2.02201   0.01278   0.00000   0.01041   0.01041   2.03242
   R23        2.02201   0.01335   0.00000   0.01087   0.01087   2.03288
   R24        2.02201   0.01353   0.00000   0.01102   0.01102   2.03302
   R25        2.77790  -0.00502   0.00000  -0.00421  -0.00421   2.77368
    A1        2.27561  -0.00576   0.00000  -0.01355  -0.01305   2.26256
    A2        1.73676   0.02656   0.00000   0.04746   0.04515   1.78192
    A3        2.26985  -0.02147   0.00000  -0.03579  -0.03494   2.23492
    A4        2.17658  -0.00172   0.00000  -0.00569  -0.00485   2.17173
    A5        2.17687   0.00710   0.00000   0.00750   0.00836   2.18523
    A6        1.92863  -0.00529   0.00000  -0.00134  -0.00308   1.92555
    A7        2.24573   0.01020   0.00000   0.00238   0.00274   2.24847
    A8        1.78064  -0.00179   0.00000   0.01840   0.01479   1.79543
    A9        2.24873  -0.01175   0.00000  -0.02908  -0.02795   2.22077
   A10        1.91063  -0.00005   0.00000  -0.00173  -0.00173   1.90891
   A11        1.91063  -0.00151   0.00000  -0.00246  -0.00244   1.90819
   A12        1.91063  -0.00422   0.00000  -0.00741  -0.00741   1.90323
   A13        1.91063  -0.00019   0.00000   0.00187   0.00185   1.91248
   A14        1.91063  -0.00025   0.00000   0.00183   0.00179   1.91243
   A15        1.91063   0.00622   0.00000   0.00790   0.00789   1.91852
   A16        1.91063   0.00121   0.00000   0.00293   0.00294   1.91357
   A17        1.91063  -0.00172   0.00000  -0.00226  -0.00227   1.90837
   A18        1.91063   0.00314   0.00000   0.00441   0.00441   1.91504
   A19        1.91063  -0.00095   0.00000  -0.00326  -0.00325   1.90738
   A20        1.91063  -0.00216   0.00000  -0.00313  -0.00314   1.90749
   A21        1.91063   0.00048   0.00000   0.00131   0.00131   1.91194
   A22        1.91063  -0.00146   0.00000  -0.00162  -0.00162   1.90901
   A23        1.91063  -0.00092   0.00000  -0.00056  -0.00057   1.91007
   A24        1.91063   0.00508   0.00000   0.00686   0.00685   1.91749
   A25        1.91063  -0.00079   0.00000  -0.00351  -0.00351   1.90712
   A26        1.91063  -0.00080   0.00000  -0.00037  -0.00038   1.91026
   A27        1.91063  -0.00111   0.00000  -0.00080  -0.00080   1.90983
   A28        1.91063   0.00324   0.00000   0.00473   0.00472   1.91535
   A29        1.91063   0.00404   0.00000   0.00585   0.00583   1.91646
   A30        1.91063   0.00339   0.00000   0.00496   0.00494   1.91558
   A31        1.91063  -0.00370   0.00000  -0.00543  -0.00544   1.90519
   A32        1.91063  -0.00323   0.00000  -0.00464  -0.00465   1.90598
   A33        1.91063  -0.00374   0.00000  -0.00547  -0.00548   1.90515
   A34        1.91063   0.00287   0.00000   0.00349   0.00346   1.91410
   A35        1.91063   0.00148   0.00000   0.00269   0.00269   1.91332
   A36        1.91063  -0.00118   0.00000  -0.00179  -0.00180   1.90883
   A37        1.91063   0.00373   0.00000   0.00558   0.00557   1.91621
   A38        1.91063  -0.00713   0.00000  -0.01065  -0.01066   1.89997
   A39        1.91063   0.00024   0.00000   0.00069   0.00068   1.91132
   A40        1.73265   0.00976   0.00000   0.02861   0.02742   1.76007
   A41        1.99794   0.01293   0.00000   0.02318   0.02246   2.02041
   A42        1.96009   0.00029   0.00000   0.01024   0.01074   1.97082
   A43        1.82984   0.01596   0.00000   0.03332   0.03164   1.86148
   A44        2.22282  -0.00516   0.00000  -0.01388  -0.01326   2.20956
   A45        2.22966  -0.01118   0.00000  -0.02046  -0.01974   2.20992
    D1       -1.02606   0.00383   0.00000   0.01497   0.01336  -1.01270
    D2        2.24385   0.03140   0.00000   0.08258   0.08166   2.32551
    D3        2.15967   0.01973   0.00000   0.05918   0.05827   2.21794
    D4       -0.85361   0.04730   0.00000   0.12678   0.12657  -0.72704
    D5        0.64645  -0.02186   0.00000  -0.07493  -0.07699   0.56946
    D6        2.73721  -0.00968   0.00000  -0.03469  -0.03513   2.70207
    D7       -2.45121  -0.00661   0.00000  -0.03176  -0.03383  -2.48505
    D8       -0.36046   0.00557   0.00000   0.00848   0.00803  -0.35244
    D9        2.83943   0.01709   0.00000   0.04132   0.04126   2.88069
   D10        0.72098  -0.00380   0.00000  -0.00686  -0.00722   0.71376
   D11       -0.25356   0.01490   0.00000   0.03078   0.03055  -0.22302
   D12       -2.37202  -0.00599   0.00000  -0.01741  -0.01793  -2.38995
   D13        2.90990   0.01518   0.00000   0.03769   0.03785   2.94775
   D14       -0.27378   0.00582   0.00000   0.01235   0.01181  -0.26197
   D15       -0.28030   0.01707   0.00000   0.04779   0.04821  -0.23209
   D16        2.81921   0.00772   0.00000   0.02245   0.02217   2.84138
   D17        0.70733  -0.03778   0.00000  -0.10565  -0.10637   0.60096
   D18       -2.39195  -0.02857   0.00000  -0.08039  -0.08053  -2.47248
   D19       -2.30563  -0.01242   0.00000  -0.04115  -0.04265  -2.34828
   D20        0.87827  -0.00321   0.00000  -0.01589  -0.01681   0.86146
   D21        3.14159   0.00068   0.00000   0.00179   0.00180  -3.13980
   D22       -1.04720  -0.00079   0.00000  -0.00179  -0.00178  -1.04898
   D23        1.04720   0.00067   0.00000   0.00113   0.00113   1.04833
   D24        1.04720   0.00179   0.00000   0.00426   0.00427   1.05147
   D25       -3.14159   0.00032   0.00000   0.00069   0.00069  -3.14090
   D26       -1.04720   0.00178   0.00000   0.00360   0.00361  -1.04359
   D27       -1.04720  -0.00160   0.00000  -0.00396  -0.00396  -1.05116
   D28        1.04720  -0.00307   0.00000  -0.00753  -0.00754   1.03966
   D29        3.14159  -0.00161   0.00000  -0.00462  -0.00463   3.13697
   D30       -3.07366  -0.00894   0.00000  -0.02557  -0.02564  -3.09931
   D31       -1.11513   0.01175   0.00000   0.03199   0.03206  -1.08307
   D32       -0.97927  -0.01174   0.00000  -0.03110  -0.03118  -1.01045
   D33        0.97927   0.00895   0.00000   0.02646   0.02652   1.00579
   D34        1.11513  -0.00832   0.00000  -0.02285  -0.02291   1.09222
   D35        3.07366   0.01237   0.00000   0.03471   0.03479   3.10845
   D36       -1.04720   0.00185   0.00000   0.00391   0.00391  -1.04329
   D37        1.04720  -0.00058   0.00000  -0.00172  -0.00172   1.04547
   D38        3.14159   0.00061   0.00000   0.00116   0.00116  -3.14043
   D39        3.14159  -0.00023   0.00000  -0.00046  -0.00046   3.14113
   D40       -1.04720  -0.00266   0.00000  -0.00609  -0.00609  -1.05329
   D41        1.04720  -0.00147   0.00000  -0.00321  -0.00321   1.04399
   D42        1.04720   0.00196   0.00000   0.00464   0.00464   1.05184
   D43        3.14159  -0.00047   0.00000  -0.00099  -0.00099   3.14060
   D44       -1.04720   0.00073   0.00000   0.00189   0.00189  -1.04530
   D45        1.04720  -0.00010   0.00000  -0.00020  -0.00020   1.04700
   D46        3.14159  -0.00017   0.00000  -0.00037  -0.00037   3.14122
   D47       -1.04720  -0.00021   0.00000  -0.00045  -0.00045  -1.04765
   D48       -1.04720  -0.00093   0.00000  -0.00219  -0.00219  -1.04939
   D49        1.04720  -0.00100   0.00000  -0.00236  -0.00236   1.04484
   D50        3.14159  -0.00103   0.00000  -0.00244  -0.00244   3.13915
   D51        3.14159   0.00121   0.00000   0.00282   0.00282  -3.13877
   D52       -1.04720   0.00114   0.00000   0.00266   0.00266  -1.04454
   D53        1.04720   0.00110   0.00000   0.00257   0.00257   1.04977
   D54        2.64372   0.00597   0.00000   0.01566   0.01573   2.65945
   D55       -0.54933  -0.00481   0.00000  -0.01407  -0.01416  -0.56349
   D56       -1.54507   0.00439   0.00000   0.01231   0.01240  -1.53267
   D57        1.54507  -0.00638   0.00000  -0.01742  -0.01749   1.52757
   D58        0.54933   0.00473   0.00000   0.01304   0.01312   0.56245
   D59       -2.64372  -0.00604   0.00000  -0.01669  -0.01677  -2.66049
         Item               Value     Threshold  Converged?
 Maximum Force            0.076835     0.000450     NO 
 RMS     Force            0.014528     0.000300     NO 
 Maximum Displacement     0.160665     0.001800     NO 
 RMS     Displacement     0.041179     0.001200     NO 
 Predicted change in Energy=-3.942088D-02
 GradGradGradGradGradGradGradGradGradGradGradGradGradGradGradGradGradGrad

                          Input orientation:                          
 ---------------------------------------------------------------------
 Center     Atomic      Atomic             Coordinates (Angstroms)
 Number     Number       Type             X           Y           Z
 ---------------------------------------------------------------------
      1          6           0       -1.153196    0.859178   -0.031617
      2          6           0        0.490742    2.404912    0.246928
      3          6           0       -1.475355    2.111514   -0.693900
      4          1           0        1.398797    2.863545    0.589215
      5          1           0       -2.053094    2.272868   -1.583620
      6          1           0       -1.807114    0.105546    0.362728
      7          6           0        0.904629    0.147254    1.173920
      8          1           0        1.967811    0.314993    1.182215
      9          1           0        0.486554    0.458627    2.116093
     10          6           0        0.627110   -1.349640    0.956571
     11          1           0       -0.435478   -1.522815    0.945621
     12          1           0        1.047258   -1.657055    0.013997
     13          6           0        1.263584   -2.166418    2.094784
     14          1           0        2.326536   -1.994590    2.106720
     15          1           0        0.842915   -1.856915    3.036660
     16          6           0        0.989156   -3.665472    1.879520
     17          1           0        1.410087   -3.980962    0.940479
     18          1           0        1.434898   -4.235706    2.675676
     19          1           0       -0.072440   -3.843182    1.869208
     20          6           0       -0.955675    4.426845    0.331071
     21          1           0       -1.640757    4.833683   -0.391330
     22          1           0       -1.414227    4.425383    1.304194
     23          1           0       -0.058371    5.019982    0.352114
     24          7           0        0.299892    0.936366    0.078339
     25          7           0       -0.622013    3.046051   -0.038289
 ---------------------------------------------------------------------
                    Distance matrix (angstroms):
                    1          2          3          4          5
     1  C    0.000000
     2  C    2.273635   0.000000
     3  C    1.452842   2.199267   0.000000
     4  H    3.303875   1.073344   3.236153   0.000000
     5  H    2.284086   3.136788   1.073042   4.121366   0.000000
     6  H    1.072883   3.252789   2.291383   4.235059   2.923365
     7  C    2.488936   2.475407   3.607131   2.822113   4.568412
     8  H    3.392670   2.724749   4.313083   2.677787   5.258402
     9  H    2.731644   2.698485   3.804889   2.991183   4.840367
    10  C    3.004145   3.823461   4.373100   4.298998   5.172875
    11  H    2.672827   4.095497   4.120403   4.767782   4.839520
    12  H    3.342979   4.106524   4.589859   4.570588   5.254413
    13  C    4.417764   4.990884   5.794760   5.252195   6.651186
    14  H    4.982471   5.117088   6.257630   5.173490   7.142196
    15  H    4.558063   5.105859   5.919449   5.346188   6.840245
    16  C    5.358597   6.305817   6.787478   6.667889   7.517479
    17  H    5.562584   6.488883   6.936514   6.853524   7.581233
    18  H    6.323410   7.133587   7.753116   7.399594   8.524625
    19  H    5.185881   6.479788   6.632956   6.984491   7.297334
    20  C    3.591490   2.487451   2.584838   2.837972   3.083826
    21  H    4.020423   3.293871   2.743922   3.752573   2.854706
    22  H    3.817112   2.971367   3.057795   3.296003   3.657996
    23  H    4.319512   2.674169   3.400173   2.613384   3.908020
    24  N    1.459286   1.490461   2.264692   2.276533   3.175672
    25  N    2.250470   1.315535   1.425264   2.123851   2.243624
                    6          7          8          9         10
     6  H    0.000000
     7  C    2.830782   0.000000
     8  H    3.868525   1.076364   0.000000
     9  H    2.908585   1.076768   1.756952   0.000000
    10  C    2.897528   1.537839   2.149279   2.152691   0.000000
    11  H    2.207422   2.153402   3.034685   2.479165   1.076663
    12  H    3.372805   2.149720   2.470046   3.034684   1.076789
    13  C    4.194166   2.515933   2.736078   2.737717   1.538750
    14  H    4.953700   2.734855   2.513478   3.066577   2.151011
    15  H    4.245447   2.736841   3.069453   2.517175   2.151898
    16  C    4.933594   3.878387   4.157896   4.161341   2.519124
    17  H    5.232946   4.165591   4.338747   4.684542   2.745390
    18  H    5.891251   4.663345   4.819054   4.821748   3.455028
    19  H    4.568482   4.166734   4.682415   4.344996   2.745911
    20  C    4.404495   4.741943   5.116497   4.584003   6.021980
    21  H    4.790778   5.558023   5.993026   5.473001   6.722614
    22  H    4.438661   4.867900   5.324318   4.472952   6.135046
    23  H    5.216311   5.034502   5.189547   4.920826   6.434854
    24  N    2.282678   1.479426   2.094421   2.101313   2.470666
    25  N    3.195599   3.493296   3.956703   3.544721   4.676768
                   11         12         13         14         15
    11  H    0.000000
    12  H    1.756260   0.000000
    13  C    2.149793   2.153119   0.000000
    14  H    3.033058   2.475878   1.076817   0.000000
    15  H    2.473531   3.036148   1.076980   1.756380   0.000000
    16  C    2.737284   2.741768   1.539094   2.152220   2.152031
    17  H    3.073861   2.527956   2.155563   2.479047   3.037637
    18  H    3.721716   3.726157   2.156093   2.478170   2.477781
    19  H    2.523671   3.078098   2.155779   3.037892   2.479128
    20  C    6.003893   6.412964   7.176831   7.427023   7.073950
    21  H    6.606451   7.037001   7.976050   8.282812   7.917312
    22  H    6.038840   6.687269   7.158739   7.473514   6.896621
    23  H    6.580475   6.776397   7.511911   7.613846   7.437124
    24  N    2.709340   2.699727   3.823875   4.100258   4.104747
    25  N    4.677330   4.990832   5.939303   6.221180   5.969958
                   16         17         18         19         20
    16  C    0.000000
    17  H    1.076344   0.000000
    18  H    1.075974   1.753973   0.000000
    19  H    1.076417   1.754824   1.754005   0.000000
    20  C    8.465556   8.755537   9.287185   8.458092   0.000000
    21  H    9.181983   9.422278  10.055844   9.102617   1.075508
    22  H    8.459856   8.875566   9.220246   8.395761   1.075751
    23  H    8.880731   9.138902   9.659014   8.992077   1.075830
    24  N    4.989614   5.114287   5.897858   5.117610   3.718032
    25  N    7.163686   7.380131   8.038686   7.169527   1.467770
                   21         22         23         24         25
    21  H    0.000000
    22  H    1.758644   0.000000
    23  H    1.758228   1.760214   0.000000
    24  N    4.379017   4.076047   4.108433   0.000000
    25  N    2.087607   2.081447   2.089620   2.305273   0.000000
 Stoichiometry    C8H15N2(1+)
 Framework group  C1[X(C8H15N2)]
 Deg. of freedom    69
 Full point group                 C1      NOp   1
 Largest Abelian subgroup         C1      NOp   1
 Largest concise Abelian subgroup C1      NOp   1
                         Standard orientation:                         
 ---------------------------------------------------------------------
 Center     Atomic      Atomic             Coordinates (Angstroms)
 Number     Number       Type             X           Y           Z
 ---------------------------------------------------------------------
      1          6           0        0.781298    1.194315    0.139267
      2          6           0        1.661634   -0.813193   -0.464333
      3          6           0        2.204476    1.292553   -0.135801
      4          1           0        1.733189   -1.864232   -0.669919
      5          1           0        2.758575    2.124913   -0.525122
      6          1           0        0.166015    1.791715    0.783952
      7          6           0       -0.784114   -0.726808   -0.092189
      8          1           0       -0.933102   -1.616549   -0.679320
      9          1           0       -0.635816   -0.999873    0.938769
     10          6           0       -2.023031    0.176210   -0.212986
     11          1           0       -1.878488    1.068935    0.371268
     12          1           0       -2.168166    0.446347   -1.245186
     13          6           0       -3.264156   -0.573257    0.302437
     14          1           0       -3.410310   -1.466240   -0.281305
     15          1           0       -3.116762   -0.843448    1.334502
     16          6           0       -4.506502    0.327158    0.181444
     17          1           0       -4.660247    0.598033   -0.848850
     18          1           0       -5.373799   -0.197917    0.541736
     19          1           0       -4.366584    1.220550    0.765350
     20          6           0        3.907722   -0.521467    0.563968
     21          1           0        4.672434    0.214363    0.389365
     22          1           0        3.771352   -0.657865    1.622287
     23          1           0        4.193448   -1.454190    0.110317
     24          7           0        0.410980   -0.012640   -0.592605
     25          7           0        2.643919   -0.058447   -0.021493
 ---------------------------------------------------------------------
 Rotational constants (GHZ):      4.6550484      0.5051767      0.4768564
 Standard basis: 6-311+G(d) (5D, 7F)
 There are   265 symmetry adapted basis functions of A   symmetry.
 Integral buffers will be    131072 words long.
 Raffenetti 2 integral format.
 Two-electron integral symmetry is turned on.
   265 basis functions,   435 primitive gaussians,   275 cartesian basis functions
    38 alpha electrons       38 beta electrons
       nuclear repulsion energy       525.5487568637 Hartrees.
 NAtoms=   25 NActive=   25 NUniq=   25 SFac= 7.50D-01 NAtFMM=   80 NAOKFM=F Big=F
 One-electron integrals computed using PRISM.
 NBasis=   265 RedAO= T  NBF=   265
 NBsUse=   265 1.00D-06 NBFU=   265
 Initial guess read from the read-write file.
 B after Tr=     0.000000    0.000000    0.000000
         Rot=    1.000000    0.000000    0.000000    0.000000 Ang=   0.00 deg.
 Initial guess orbital symmetries:
       Occupied  (A) (A) (A) (A) (A) (A) (A) (A) (A) (A) (A) (A)
                 (A) (A) (A) (A) (A) (A) (A) (A) (A) (A) (A) (A)
                 (A) (A) (A) (A) (A) (A) (A) (A) (A) (A) (A) (A)
                 (A) (A)
       Virtual   (A) (A) (A) (A) (A) (A) (A) (A) (A) (A) (A) (A)
                 (A) (A) (A) (A) (A) (A) (A) (A) (A) (A) (A) (A)
                 (A) (A) (A) (A) (A) (A) (A) (A) (A) (A) (A) (A)
                 (A) (A) (A) (A) (A) (A) (A) (A) (A) (A) (A) (A)
                 (A) (A) (A) (A) (A) (A) (A) (A) (A) (A) (A) (A)
                 (A) (A) (A) (A) (A) (A) (A) (A) (A) (A) (A) (A)
                 (A) (A) (A) (A) (A) (A) (A) (A) (A) (A) (A) (A)
                 (A) (A) (A) (A) (A) (A) (A) (A) (A) (A) (A) (A)
                 (A) (A) (A) (A) (A) (A) (A) (A) (A) (A) (A) (A)
                 (A) (A) (A) (A) (A) (A) (A) (A) (A) (A) (A) (A)
                 (A) (A) (A) (A) (A) (A) (A) (A) (A) (A) (A) (A)
                 (A) (A) (A) (A) (A) (A) (A) (A) (A) (A) (A) (A)
                 (A) (A) (A) (A) (A) (A) (A) (A) (A) (A) (A) (A)
                 (A) (A) (A) (A) (A) (A) (A) (A) (A) (A) (A) (A)
                 (A) (A) (A) (A) (A) (A) (A) (A) (A) (A) (A) (A)
                 (A) (A) (A) (A) (A) (A) (A) (A) (A) (A) (A) (A)
                 (A) (A) (A) (A) (A) (A) (A) (A) (A) (A) (A) (A)
                 (A) (A) (A) (A) (A) (A) (A) (A) (A) (A) (A) (A)
                 (A) (A) (A) (A) (A) (A) (A) (A) (A) (A) (A)
 Harris functional with IExCor= 1009 diagonalized for initial guess.
 ExpMin= 4.38D-02 ExpMax= 6.29D+03 ExpMxC= 9.49D+02 IAcc=2 IRadAn=         0 AccDes= 0.00D+00
 HarFok:  IExCor= 1009 AccDes= 0.00D+00 IRadAn=         0 IDoV= 1
 ScaDFX=  1.000000  1.000000  1.000000  1.000000
 FoFCou: FMM=F IPFlag=           0 FMFlag=      100000 FMFlg1=           0
         NFxFlg=           0 DoJE=T BraDBF=F KetDBF=T FulRan=T
         Omega=  0.000000  0.000000  1.000000  0.000000  0.000000 ICntrl=     500 IOpCl=  0
         NMat0=    1 NMatS0=    1 NMatT0=    0 NMatD0=    1 NMtDS0=    0 NMtDT0=    0
         I1Cent=           4 NGrid=           0.
 Petite list used in FoFCou.
 Requested convergence on RMS density matrix=1.00D-08 within 128 cycles.
 Requested convergence on MAX density matrix=1.00D-06.
 Requested convergence on             energy=1.00D-06.
 No special actions if energy rises.
 SCF Done:  E(RM062X) =  -422.937382107     A.U. after   13 cycles
             Convg  =    0.6999D-08             -V/T =  2.0045
 Calling FoFJK, ICntrl=      2127 FMM=F ISym2X=0 I1Cent= 0 IOpClX= 0 NMat=1 NMatS=1 NMatT=0.
 ***** Axes restored to original set *****
 -------------------------------------------------------------------
 Center     Atomic                   Forces (Hartrees/Bohr)
 Number     Number              X              Y              Z
 -------------------------------------------------------------------
      1        6           0.041700912    0.064300178   -0.074144587
      2        6          -0.017752606   -0.056332278   -0.005679541
      3        6          -0.007510278   -0.052659903    0.075516177
      4        1           0.004356792   -0.001194989    0.005609613
      5        1          -0.020122858    0.014168848    0.009927073
      6        1           0.003416704   -0.017601237   -0.016172219
      7        6           0.001477848   -0.025111931   -0.008883064
      8        1           0.009706224    0.003686500   -0.000919178
      9        1          -0.002393004    0.004602061    0.009618790
     10        6           0.015255464    0.012581887    0.018200874
     11        1          -0.010218120   -0.004472616   -0.001708596
     12        1           0.001686537   -0.002975527   -0.010814975
     13        6          -0.013521751   -0.011032986   -0.018651168
     14        1           0.010682010    0.003048767    0.002638144
     15        1          -0.001644479    0.004081506    0.010806486
     16        6           0.005042410    0.019643780    0.005155930
     17        1           0.003298021   -0.005621226   -0.008363128
     18        1           0.002914002   -0.007627305    0.005791699
     19        1          -0.009726517   -0.004502643   -0.000309042
     20        6           0.006063404   -0.001762341   -0.013800165
     21        1          -0.005476391    0.002457000   -0.006287571
     22        1          -0.004691060   -0.003324646    0.007798507
     23        1           0.007857874    0.004527781   -0.000213942
     24        7          -0.050750404    0.081573285    0.059862279
     25        7           0.030349268   -0.020451967   -0.044978394
 -------------------------------------------------------------------
 Cartesian Forces:  Max     0.081573285 RMS     0.024501207

 GradGradGradGradGradGradGradGradGradGradGradGradGradGradGradGradGradGrad
 Berny optimization.
 Using GEDIIS/GDIIS optimizer.
 Internal  Forces:  Max     0.064329723 RMS     0.012106624
 Search for a local minimum.
 Step number   2 out of a maximum of  139
 All quantities printed in internal units (Hartrees-Bohrs-Radians)
 Mixed Optimization -- RFO/linear search
 Update second derivatives using D2CorX and points    1    2
 DE= -3.96D-02 DEPred=-3.94D-02 R= 1.00D+00
 SS=  1.41D+00  RLast= 3.00D-01 DXNew= 5.0454D-01 8.9926D-01
 Trust test= 1.00D+00 RLast= 3.00D-01 DXMaxT set to 5.05D-01
 Use linear search instead of GDIIS.
 Linear search step of   0.600 exceeds DXMaxT=   0.505 but not scaled.
 Quartic linear search produced a step of  2.00000.
 Iteration  1 RMS(Cart)=  0.07461698 RMS(Int)=  0.00493760
 Iteration  2 RMS(Cart)=  0.00696193 RMS(Int)=  0.00351363
 Iteration  3 RMS(Cart)=  0.00003866 RMS(Int)=  0.00351352
 Iteration  4 RMS(Cart)=  0.00000039 RMS(Int)=  0.00351352
 Variable       Old X    -DE/DX   Delta X   Delta X   Delta X     New X
                                 (Linear)    (Quad)   (Total)
    R1        2.74547  -0.06214  -0.12968   0.00000  -0.13317   2.61230
    R2        2.02746   0.00434   0.01090   0.00000   0.01090   2.03835
    R3        2.75765  -0.02957  -0.05436   0.00000  -0.05191   2.70574
    R4        2.02833   0.00496   0.01264   0.00000   0.01264   2.04097
    R5        2.81656  -0.06433  -0.15173   0.00000  -0.15023   2.66633
    R6        2.48600  -0.01463  -0.02684   0.00000  -0.02698   2.45902
    R7        2.02776   0.00473   0.01150   0.00000   0.01150   2.03925
    R8        2.69336  -0.01666  -0.01576   0.00000  -0.01619   2.67717
    R9        2.03403   0.01016   0.02405   0.00000   0.02405   2.05809
   R10        2.03480   0.01067   0.02558   0.00000   0.02558   2.06038
   R11        2.90609  -0.00411  -0.00817   0.00000  -0.00817   2.89793
   R12        2.79571   0.01434   0.03563   0.00000   0.03563   2.83134
   R13        2.03460   0.01082   0.02518   0.00000   0.02518   2.05978
   R14        2.03484   0.01097   0.02566   0.00000   0.02566   2.06049
   R15        2.90782  -0.00232  -0.00472   0.00000  -0.00472   2.90309
   R16        2.03489   0.01106   0.02576   0.00000   0.02576   2.06065
   R17        2.03520   0.01127   0.02638   0.00000   0.02638   2.06158
   R18        2.90847  -0.00244  -0.00342   0.00000  -0.00342   2.90504
   R19        2.03399   0.01023   0.02398   0.00000   0.02398   2.05797
   R20        2.03330   0.00954   0.02258   0.00000   0.02258   2.05587
   R21        2.03413   0.01034   0.02425   0.00000   0.02425   2.05838
   R22        2.03242   0.00864   0.02082   0.00000   0.02082   2.05323
   R23        2.03288   0.00906   0.02174   0.00000   0.02174   2.05461
   R24        2.03302   0.00905   0.02203   0.00000   0.02203   2.05506
   R25        2.77368  -0.00222  -0.00843   0.00000  -0.00843   2.76525
    A1        2.26256  -0.00318  -0.02611   0.00000  -0.02429   2.23827
    A2        1.78192   0.01989   0.09031   0.00000   0.07720   1.85912
    A3        2.23492  -0.01769  -0.06987   0.00000  -0.06424   2.17068
    A4        2.17173  -0.00132  -0.00970   0.00000  -0.00551   2.16621
    A5        2.18523   0.00466   0.01672   0.00000   0.02098   2.20620
[...]
     14          1           0        3.362891   -1.348987   -0.590352
     15          1           0        3.572579    0.296899   -1.160499
     16          6           0        4.351009   -0.050660    0.821750
     17          1           0        4.135788   -0.652779    1.707488
     18          1           0        5.355479   -0.305597    0.483330
     19          1           0        4.359007    0.999100    1.123947
     20          6           0       -3.807285   -0.796686    0.526364
     21          1           0       -4.050587   -0.557073    1.559672
     22          1           0       -4.586382   -0.431013   -0.139693
     23          1           0       -3.711075   -1.874384    0.416523
     24          7           0       -0.484410    0.092788   -0.489952
     25          7           0       -2.531069   -0.169353    0.171190
 ---------------------------------------------------------------------
 Rotational constants (GHZ):      4.1085921      0.5147680      0.4972270

 **********************************************************************

            Population analysis using the SCF density.

 **********************************************************************

 Orbital symmetries:
       Occupied  (A) (A) (A) (A) (A) (A) (A) (A) (A) (A) (A) (A)
                 (A) (A) (A) (A) (A) (A) (A) (A) (A) (A) (A) (A)
                 (A) (A) (A) (A) (A) (A) (A) (A) (A) (A) (A) (A)
                 (A) (A)
       Virtual   (A) (A) (A) (A) (A) (A) (A) (A) (A) (A) (A) (A)
                 (A) (A) (A) (A) (A) (A) (A) (A) (A) (A) (A) (A)
                 (A) (A) (A) (A) (A) (A) (A) (A) (A) (A) (A) (A)
                 (A) (A) (A) (A) (A) (A) (A) (A) (A) (A) (A) (A)
                 (A) (A) (A) (A) (A) (A) (A) (A) (A) (A) (A) (A)
                 (A) (A) (A) (A) (A) (A) (A) (A) (A) (A) (A) (A)
                 (A) (A) (A) (A) (A) (A) (A) (A) (A) (A) (A) (A)
                 (A) (A) (A) (A) (A) (A) (A) (A) (A) (A) (A) (A)
                 (A) (A) (A) (A) (A) (A) (A) (A) (A) (A) (A) (A)
                 (A) (A) (A) (A) (A) (A) (A) (A) (A) (A) (A) (A)
                 (A) (A) (A) (A) (A) (A) (A) (A) (A) (A) (A) (A)
                 (A) (A) (A) (A) (A) (A) (A) (A) (A) (A) (A) (A)
                 (A) (A) (A) (A) (A) (A) (A) (A) (A) (A) (A) (A)
                 (A) (A) (A) (A) (A) (A) (A) (A) (A) (A) (A) (A)
                 (A) (A) (A) (A) (A) (A) (A) (A) (A) (A) (A) (A)
                 (A) (A) (A) (A) (A) (A) (A) (A) (A) (A) (A) (A)
                 (A) (A) (A) (A) (A) (A) (A) (A) (A) (A) (A) (A)
                 (A) (A) (A) (A) (A) (A) (A) (A) (A) (A) (A) (A)
                 (A) (A) (A) (A) (A) (A) (A) (A) (A) (A) (A)
 The electronic state is 1-A.
 Alpha  occ. eigenvalues --  -15.00916 -15.00495 -10.80956 -10.75747 -10.75640
 Alpha  occ. eigenvalues --  -10.74532 -10.74268 -10.67526 -10.65129 -10.62372
 Alpha  occ. eigenvalues --   -1.35900  -1.23142  -1.07098  -1.04412  -1.00448
 Alpha  occ. eigenvalues --   -0.95746  -0.89942  -0.87325  -0.85690  -0.79864
 Alpha  occ. eigenvalues --   -0.79078  -0.74480  -0.71612  -0.70934  -0.69622
 Alpha  occ. eigenvalues --   -0.69070  -0.67246  -0.66784  -0.63687  -0.62248
 Alpha  occ. eigenvalues --   -0.61689  -0.58163  -0.55655  -0.54381  -0.51908
 Alpha  occ. eigenvalues --   -0.50769  -0.50688  -0.48470
 Alpha virt. eigenvalues --   -0.14516  -0.11875  -0.11390  -0.09826  -0.09532
 Alpha virt. eigenvalues --   -0.08213  -0.07960  -0.07451  -0.07039  -0.05927
 Alpha virt. eigenvalues --   -0.05549  -0.05331  -0.04642  -0.03852  -0.03335
 Alpha virt. eigenvalues --   -0.02363  -0.01882  -0.01283  -0.01010  -0.00762
 Alpha virt. eigenvalues --    0.00223   0.00686   0.01489   0.02039   0.02405
 Alpha virt. eigenvalues --    0.02979   0.03397   0.04445   0.04870   0.05077
 Alpha virt. eigenvalues --    0.05916   0.06608   0.06734   0.07540   0.07914
 Alpha virt. eigenvalues --    0.08531   0.08789   0.09162   0.09820   0.10175
 Alpha virt. eigenvalues --    0.10572   0.10955   0.11093   0.11585   0.12179
 Alpha virt. eigenvalues --    0.12994   0.13502   0.13906   0.14580   0.14813
 Alpha virt. eigenvalues --    0.15443   0.16225   0.16981   0.17535   0.17939
 Alpha virt. eigenvalues --    0.18633   0.19726   0.19890   0.20882   0.21371
 Alpha virt. eigenvalues --    0.22244   0.23080   0.25739   0.27749   0.29201
 Alpha virt. eigenvalues --    0.31482   0.31745   0.32897   0.33890   0.34475
 Alpha virt. eigenvalues --    0.35217   0.36450   0.38743   0.40490   0.42162
 Alpha virt. eigenvalues --    0.43047   0.43989   0.44406   0.46906   0.47899
 Alpha virt. eigenvalues --    0.48434   0.49453   0.50298   0.52362   0.52425
 Alpha virt. eigenvalues --    0.53918   0.55011   0.56415   0.56754   0.56894
 Alpha virt. eigenvalues --    0.58023   0.58482   0.59161   0.59871   0.61210
 Alpha virt. eigenvalues --    0.62200   0.62445   0.63730   0.64787   0.65861
 Alpha virt. eigenvalues --    0.67132   0.68091   0.68833   0.69538   0.72058
 Alpha virt. eigenvalues --    0.72142   0.74033   0.75546   0.78313   0.79541
 Alpha virt. eigenvalues --    0.85631   0.86249   0.88822   0.90366   0.91917
 Alpha virt. eigenvalues --    0.93302   0.94917   0.96087   0.96456   1.00681
 Alpha virt. eigenvalues --    1.03583   1.05557   1.12771   1.15361   1.15605
 Alpha virt. eigenvalues --    1.17399   1.19190   1.22164   1.23594   1.34491
 Alpha virt. eigenvalues --    1.36650   1.39593   1.41453   1.44576   1.45156
 Alpha virt. eigenvalues --    1.45364   1.47067   1.49602   1.51244   1.52140
 Alpha virt. eigenvalues --    1.54112   1.55135   1.56727   1.57513   1.58614
 Alpha virt. eigenvalues --    1.61726   1.64072   1.64308   1.68808   1.71906
 Alpha virt. eigenvalues --    1.72596   1.74119   1.75391   1.77346   1.80473
 Alpha virt. eigenvalues --    1.82123   1.84833   1.87906   1.94836   2.05282
 Alpha virt. eigenvalues --    2.07704   2.09806   2.13557   2.17637   2.26264
 Alpha virt. eigenvalues --    2.29514   2.32680   2.35314   2.37427   2.40571
 Alpha virt. eigenvalues --    2.43687   2.43921   2.45345   2.45618   2.46036
 Alpha virt. eigenvalues --    2.46646   2.49490   2.49681   2.51646   2.52731
 Alpha virt. eigenvalues --    2.56761   2.57554   2.58240   2.66242   2.68255
 Alpha virt. eigenvalues --    2.72399   2.77437   2.85893   2.90488   2.93419
 Alpha virt. eigenvalues --    2.97487   3.01192   3.05622   3.05788   3.07097
 Alpha virt. eigenvalues --    3.09283   3.13914   3.15995   3.18774   3.20198
 Alpha virt. eigenvalues --    3.26301   3.29585   3.34981   3.39609   3.42552
 Alpha virt. eigenvalues --    3.44662   3.52219   3.59742   3.76086   3.77669
 Alpha virt. eigenvalues --    3.80100   3.84561   3.99335   4.51629   4.69060
 Alpha virt. eigenvalues --    4.74908   5.04439  23.41327  23.44445  23.52331
 Alpha virt. eigenvalues --   23.58164  23.64649  23.69947  23.72845  24.00773
 Alpha virt. eigenvalues --   35.35502  35.50014
          Condensed to atoms (all electrons):
              1          2          3          4          5          6
     1  C    6.003606  -0.042234  -0.057870  -0.008516  -0.011526   0.406091
     2  C   -0.042234   5.451601  -0.201062   0.409343   0.009159  -0.001925
     3  C   -0.057870  -0.201062   5.909567   0.003477   0.398054  -0.025984
     4  H   -0.008516   0.409343   0.003477   0.344882  -0.000029  -0.000064
     5  H   -0.011526   0.009159   0.398054  -0.000029   0.348118  -0.000611
     6  H    0.406091  -0.001925  -0.025984  -0.000064  -0.000611   0.349655
     7  C   -0.549103  -0.172734   0.138687   0.007456  -0.000900  -0.014746
     8  H   -0.011052   0.038664  -0.010295   0.002793   0.000018  -0.000025
     9  H    0.003888  -0.014490   0.004189  -0.000017  -0.000003  -0.000902
    10  C    0.269704   0.056617  -0.103230   0.006900  -0.000039   0.014018
    11  H    0.007070   0.003546  -0.019469   0.000070   0.000025  -0.001091
    12  H    0.025944   0.009659  -0.004034  -0.000235  -0.000007   0.000078
    13  C   -0.100166  -0.031455   0.056611   0.000670  -0.000140   0.002915
    14  H   -0.004936  -0.002275  -0.001486   0.000041   0.000000  -0.000018
    15  H    0.011233   0.002668  -0.000217  -0.000011   0.000000   0.000058
    16  C   -0.010533  -0.007445  -0.003182   0.000371  -0.000001   0.000717
    17  H    0.001818   0.000565   0.000194  -0.000001   0.000000   0.000003
    18  H   -0.000006   0.000079  -0.000033   0.000000   0.000000  -0.000001
    19  H   -0.001674  -0.000115  -0.000244   0.000000   0.000000  -0.000007
    20  C    0.018306  -0.076801  -0.134413   0.002108  -0.006289   0.000359
    21  H    0.012027  -0.012136  -0.011484   0.000121  -0.000540   0.000014
    22  H    0.001830  -0.018527  -0.007276   0.000079  -0.000521   0.000002
    23  H   -0.005213   0.054952   0.003349   0.001291  -0.000009   0.000013
    24  N    0.088429   0.375958   0.180291  -0.045759   0.017469  -0.064602
    25  N    0.174064   0.441523   0.121994  -0.037333  -0.068060   0.021218
              7          8          9         10         11         12
     1  C   -0.549103  -0.011052   0.003888   0.269704   0.007070   0.025944
     2  C   -0.172734   0.038664  -0.014490   0.056617   0.003546   0.009659
     3  C    0.138687  -0.010295   0.004189  -0.103230  -0.019469  -0.004034
     4  H    0.007456   0.002793  -0.000017   0.006900   0.000070  -0.000235
     5  H   -0.000900   0.000018  -0.000003  -0.000039   0.000025  -0.000007
     6  H   -0.014746  -0.000025  -0.000902   0.014018  -0.001091   0.000078
     7  C    7.837684   0.388219   0.445944  -1.155813  -0.020342  -0.114092
     8  H    0.388219   0.410254  -0.025822   0.003668   0.003789  -0.004808
     9  H    0.445944  -0.025822   0.367742  -0.038977  -0.006523   0.003664
    10  C   -1.155813   0.003668  -0.038977   7.043633   0.430581   0.500610
    11  H   -0.020342   0.003789  -0.006523   0.430581   0.429281  -0.033519
    12  H   -0.114092  -0.004808   0.003664   0.500610  -0.033519   0.413711
    13  C    0.487842  -0.001302  -0.023678  -0.821248  -0.057318  -0.090546
    14  H    0.034221   0.000701  -0.000963  -0.108386   0.005529  -0.006373
    15  H   -0.042089   0.000368   0.003465   0.032605  -0.006510   0.005491
    16  C   -0.164446   0.008015   0.001876   0.138839   0.013054  -0.010864
    17  H   -0.008650   0.000115   0.000006  -0.016417  -0.000407   0.003624
    18  H    0.006557  -0.000030  -0.000034   0.058339  -0.000129  -0.000143
    19  H    0.012004  -0.000051   0.000019  -0.059802   0.003507  -0.000453
    20  C   -0.027235   0.002172  -0.000445   0.014345  -0.000485   0.000933
    21  H   -0.000167  -0.000001  -0.000001   0.000272   0.000001  -0.000003
    22  H   -0.001911   0.000006  -0.000004   0.000035   0.000001   0.000000
    23  H    0.007710   0.000018  -0.000001  -0.000085   0.000001  -0.000002
    24  N   -0.023686  -0.100702  -0.032300  -0.074986  -0.019226   0.024677
    25  N   -0.161942   0.012012  -0.006329   0.077390   0.002137   0.000020
             13         14         15         16         17         18
     1  C   -0.100166  -0.004936   0.011233  -0.010533   0.001818  -0.000006
     2  C   -0.031455  -0.002275   0.002668  -0.007445   0.000565   0.000079
     3  C    0.056611  -0.001486  -0.000217  -0.003182   0.000194  -0.000033
     4  H    0.000670   0.000041  -0.000011   0.000371  -0.000001   0.000000
     5  H   -0.000140   0.000000   0.000000  -0.000001   0.000000   0.000000
     6  H    0.002915  -0.000018   0.000058   0.000717   0.000003  -0.000001
     7  C    0.487842   0.034221  -0.042089  -0.164446  -0.008650   0.006557
     8  H   -0.001302   0.000701   0.000368   0.008015   0.000115  -0.000030
     9  H   -0.023678  -0.000963   0.003465   0.001876   0.000006  -0.000034
    10  C   -0.821248  -0.108386   0.032605   0.138839  -0.016417   0.058339
    11  H   -0.057318   0.005529  -0.006510   0.013054  -0.000407  -0.000129
    12  H   -0.090546  -0.006373   0.005491  -0.010864   0.003624  -0.000143
    13  C    6.389460   0.447266   0.373290  -0.113349   0.003952  -0.085150
    14  H    0.447266   0.450572  -0.039415  -0.036742  -0.007905  -0.003357
    15  H    0.373290  -0.039415   0.454250  -0.065466   0.006487  -0.003165
    16  C   -0.113349  -0.036742  -0.065466   6.183551   0.357625   0.373438
    17  H    0.003952  -0.007905   0.006487   0.357625   0.450071  -0.021895
    18  H   -0.085150  -0.003357  -0.003165   0.373438  -0.021895   0.407494
    19  H    0.023746   0.006122  -0.008750   0.368125  -0.035450  -0.021913
    20  C   -0.000623  -0.000134   0.000087   0.000340   0.000026  -0.000001
    21  H    0.000009   0.000000   0.000000   0.000002   0.000000   0.000000
    22  H   -0.000011   0.000000   0.000000   0.000001   0.000000   0.000000
    23  H    0.000032   0.000000   0.000000   0.000001   0.000000   0.000000
    24  N   -0.048230  -0.003778   0.003887  -0.021111   0.000408   0.000151
    25  N   -0.005833   0.000050   0.000158   0.003030   0.000049  -0.000004
             19         20         21         22         23         24
     1  C   -0.001674   0.018306   0.012027   0.001830  -0.005213   0.088429
     2  C   -0.000115  -0.076801  -0.012136  -0.018527   0.054952   0.375958
     3  C   -0.000244  -0.134413  -0.011484  -0.007276   0.003349   0.180291
     4  H    0.000000   0.002108   0.000121   0.000079   0.001291  -0.045759
     5  H    0.000000  -0.006289  -0.000540  -0.000521  -0.000009   0.017469
     6  H   -0.000007   0.000359   0.000014   0.000002   0.000013  -0.064602
     7  C    0.012004  -0.027235  -0.000167  -0.001911   0.007710  -0.023686
     8  H   -0.000051   0.002172  -0.000001   0.000006   0.000018  -0.100702
     9  H    0.000019  -0.000445  -0.000001  -0.000004  -0.000001  -0.032300
    10  C   -0.059802   0.014345   0.000272   0.000035  -0.000085  -0.074986
    11  H    0.003507  -0.000485   0.000001   0.000001   0.000001  -0.019226
    12  H   -0.000453   0.000933  -0.000003   0.000000  -0.000002   0.024677
    13  C    0.023746  -0.000623   0.000009  -0.000011   0.000032  -0.048230
    14  H    0.006122  -0.000134   0.000000   0.000000   0.000000  -0.003778
    15  H   -0.008750   0.000087   0.000000   0.000000   0.000000   0.003887
    16  C    0.368125   0.000340   0.000002   0.000001   0.000001  -0.021111
    17  H   -0.035450   0.000026   0.000000   0.000000   0.000000   0.000408
    18  H   -0.021913  -0.000001   0.000000   0.000000   0.000000   0.000151
    19  H    0.448538  -0.000012   0.000000   0.000000   0.000000  -0.000206
    20  C   -0.000012   5.721516   0.408239   0.420976   0.356440  -0.033819
    21  H    0.000000   0.408239   0.391673  -0.027692  -0.016077  -0.006641
    22  H    0.000000   0.420976  -0.027692   0.385577  -0.015248  -0.006755
    23  H    0.000000   0.356440  -0.016077  -0.015248   0.401560   0.014660
    24  N   -0.000206  -0.033819  -0.006641  -0.006755   0.014660   6.726477
    25  N   -0.000024   0.016623  -0.041206  -0.037331  -0.083729  -0.325483
             25
     1  C    0.174064
     2  C    0.441523
     3  C    0.121994
     4  H   -0.037333
     5  H   -0.068060
     6  H    0.021218
     7  C   -0.161942
     8  H    0.012012
     9  H   -0.006329
    10  C    0.077390
    11  H    0.002137
    12  H    0.000020
    13  C   -0.005833
    14  H    0.000050
    15  H    0.000158
    16  C    0.003030
    17  H    0.000049
    18  H   -0.000004
    19  H   -0.000024
    20  C    0.016623
    21  H   -0.041206
    22  H   -0.037331
    23  H   -0.083729
    24  N   -0.325483
    25  N    6.604440
 Mulliken atomic charges:
              1
     1  C   -0.221182
     2  C   -0.273135
     3  C   -0.236135
     4  H    0.312363
     5  H    0.315832
     6  H    0.314833
     7  C   -0.908469
     8  H    0.283276
     9  H    0.319694
    10  C   -0.268570
    11  H    0.266427
    12  H    0.276669
    13  C   -0.406747
    14  H    0.271266
    15  H    0.271576
    16  C   -1.015847
    17  H    0.265780
    18  H    0.289801
    19  H    0.266640
    20  C   -0.682213
    21  H    0.303590
    22  H    0.306771
    23  H    0.280336
    24  N    0.374878
    25  N    0.292566
 Sum of Mulliken atomic charges =   1.00000
 Mulliken charges with hydrogens summed into heavy atoms:
              1
     1  C    0.093651
     2  C    0.039227
     3  C    0.079697
     7  C   -0.305500
    10  C    0.274526
    13  C    0.136095
    16  C   -0.193626
    20  C    0.208485
    24  N    0.374878
    25  N    0.292566
 Sum of Mulliken charges with hydrogens summed into heavy atoms =   1.00000
 Electronic spatial extent (au):  <R**2>=           2342.9962
 Charge=              1.0000 electrons
 Dipole moment (field-independent basis, Debye):
    X=             -5.6621    Y=             -0.6278    Z=             -0.3835  Tot=              5.7097
 Quadrupole moment (field-independent basis, Debye-Ang):
   XX=            -23.2859   YY=            -49.3759   ZZ=            -59.7132
   XY=              2.3553   XZ=             -4.8646   YZ=              0.4383
 Traceless Quadrupole moment (field-independent basis, Debye-Ang):
   XX=             20.8391   YY=             -5.2509   ZZ=            -15.5882
   XY=              2.3553   XZ=             -4.8646   YZ=              0.4383
 Octapole moment (field-independent basis, Debye-Ang**2):
  XXX=            -85.8468  YYY=              1.7778  ZZZ=             -0.7589  XYY=            -19.8443
  XXY=            -10.8750  XXZ=             16.8376  XZZ=             -3.4968  YZZ=             -2.0725
  YYZ=             -1.0495  XYZ=             -1.5466
 Hexadecapole moment (field-independent basis, Debye-Ang**3):
 XXXX=          -2087.3850 YYYY=           -238.5552 ZZZZ=           -196.0655 XXXY=             27.7178
 XXXZ=            -61.5059 YYYX=              7.9662 YYYZ=              5.8124 ZZZX=            -17.2672
 ZZZY=             -4.7335 XXYY=           -439.8460 XXZZ=           -462.2232 YYZZ=            -82.1431
 XXYZ=             -0.1082 YYXZ=             -8.5851 ZZXY=              3.8161
 N-N= 5.312072246105D+02 E-N=-2.030828071571D+03  KE= 4.213859466029D+02
 1\1\GINC-N0293\FOpt\RM062X\6-311+G(d)\C8H15N2(1+)\WAB665\03-Mar-2017\0
 \\# M062X/6-311+G* OPT\\Title Card Required\\1,1\C,-1.6077449274,1.127
 2200465,0.7833108298\C,0.2791595275,2.2468973004,0.6913022696\C,-1.821
 808912,2.2483035546,0.0462463482\H,1.3085041811,2.5362580914,0.8348614
 252\H,-2.7084368058,2.6167325676,-0.4431911792\H,-2.2735856875,0.32694
 5453,1.0615389335\C,0.3891029739,0.0950048987,1.9602494442\H,1.3549302
 185,0.5006686685,2.2661127527\H,-0.2022188648,-0.0687849734,2.86306620
 43\C,0.5560605686,-1.1879727991,1.1563101919\H,-0.4265846699,-1.562721
 6396,0.8498235702\H,1.1131602667,-0.9711322246,0.23872541\C,1.28323516
 49,-2.2571290516,1.9713774138\H,2.2661136655,-1.8795213917,2.272245116
 2\H,0.729609932,-2.4527634995,2.8955657076\C,1.4476777158,-3.553576886
 4,1.1842357885\H,2.0168090944,-3.3884905962,0.2665019703\H,1.976572307
 1,-4.303970111,1.7721656774\H,0.4778442189,-3.9726202109,0.9063702328\
 C,-0.4043894568,4.2101906681,-0.6853455258\H,-0.6306382011,4.094718623
 2,-1.7435580746\H,-1.0424432638,4.9732159551,-0.2437344227\H,0.6385549
 967,4.4943784296,-0.5659398878\N,-0.2890314002,1.1481494683,1.17910065
 29\N,-0.6282036121,2.9339896391,-0.000043029\\Version=EM64L-G09RevA.02
 \State=1-A\HF=-423.0674536\RMSD=4.682e-09\RMSF=7.746e-06\Dipole=-0.469
 8888,2.151508,-0.4432201\Quadrupole=-3.3141843,11.1891201,-7.8749358,-
 3.4250813,3.0178211,-9.5455361\PG=C01 [X(C8H15N2)]\\@


 THE MOST SERIOUS THREAT TO THE SURVIVAL OF MANKIND IS NOT NOW
 IGNORANCE IN THE TRADITIONAL SENSE,
 BUT A MORALLY NEUTRAL, AN INSENSITIVE OR INHIBITED HUMAN INTELLIGENCE.

                     -- MARGO JEFFERSON IN NEWSWEEK, SEPTEMBER 2, 1974
 Job cpu time:  0 days  5 hours 54 minutes  2.4 seconds.
 File lengths (MBytes):  RWF=    186 Int=      0 D2E=      0 Chk=      8 Scr=      4
 Normal termination of Gaussian 09 at Fri Mar  3 16:09:10 2017.
