 Entering Gaussian System, Link 0=g09
 Input=bmim-cl-1.com
 Output=bmim-cl-1.log
 Initial command:
 /gscratch/pfaendtner/codes/G09/g09/l1.exe /gscratch/pfaendtner/wesley/gaussian/Gau-10334.inp -scrdir=/gscratch/pfaendtner/wesley/gaussian/
 Entering Link 1 = /gscratch/pfaendtner/codes/G09/g09/l1.exe PID=     10335.
  
 Copyright (c) 1988,1990,1992,1993,1995,1998,2003,2009, Gaussian, Inc.
                  All Rights Reserved.
  
 This is part of the Gaussian(R) 09 program.  It is based on
 the Gaussian(R) 03 system (copyright 2003, Gaussian, Inc.),
 the Gaussian(R) 98 system (copyright 1998, Gaussian, Inc.),
 the Gaussian(R) 94 system (copyright 1995, Gaussian, Inc.),
 the Gaussian 92(TM) system (copyright 1992, Gaussian, Inc.),
 the Gaussian 90(TM) system (copyright 1990, Gaussian, Inc.),
 the Gaussian 88(TM) system (copyright 1988, Gaussian, Inc.),
 the Gaussian 86(TM) system (copyright 1986, Carnegie Mellon
 University), and the Gaussian 82(TM) system (copyright 1983,
 Carnegie Mellon University). Gaussian is a federally registered
 trademark of Gaussian, Inc.
  
 This software contains proprietary and confidential information,
 including trade secrets, belonging to Gaussian, Inc.
  
 This software is provided under written license and may be
 used, copied, transmitted, or stored only in accord with that
 written license.
  
 The following legend is applicable only to US Government
 contracts under FAR:
  
                    RESTRICTED RIGHTS LEGEND
  
 Use, reproduction and disclosure by the US Government is
 subject to restrictions as set forth in subparagraphs (a)
 and (c) of the Commercial Computer Software - Restricted
 Rights clause in FAR 52.227-19.
  
 Gaussian, Inc.
 340 Quinnipiac St., Bldg. 40, Wallingford CT 06492
  
  
 ---------------------------------------------------------------
 Warning -- This program may not be used in any manner that
 competes with the business of Gaussian, Inc. or will provide
 assistance to any competitor of Gaussian, Inc.  The licensee
 of this program is prohibited from giving any competitor of
 Gaussian, Inc. access to this program.  By using this program,
 the user acknowledges that Gaussian, Inc. is engaged in the
 business of creating and licensing software in the field of
 computational chemistry and represents and warrants to the
 licensee that it is not a competitor of Gaussian, Inc. and that
 it will not use this program in any manner prohibited above.
 ---------------------------------------------------------------
  

 Cite this work as:
 Gaussian 09, Revision A.02,
 M. J. Frisch, G. W. Trucks, H. B. Schlegel, G. E. Scuseria, 
 M. A. Robb, J. R. Cheeseman, G. Scalmani, V. Barone, B. Mennucci, 
 G. A. Petersson, H. Nakatsuji, M. Caricato, X. Li, H. P. Hratchian, 
 A. F. Izmaylov, J. Bloino, G. Zheng, J. L. Sonnenberg, M. Hada, 
 M. Ehara, K. Toyota, R. Fukuda, J. Hasegawa, M. Ishida, T. Nakajima, 
 Y. Honda, O. Kitao, H. Nakai, T. Vreven, J. A. Montgomery, Jr., 
 J. E. Peralta, F. Ogliaro, M. Bearpark, J. J. Heyd, E. Brothers, 
 K. N. Kudin, V. N. Staroverov, R. Kobayashi, J. Normand, 
 K. Raghavachari, A. Rendell, J. C. Burant, S. S. Iyengar, J. Tomasi, 
 M. Cossi, N. Rega, J. M. Millam, M. Klene, J. E. Knox, J. B. Cross, 
 V. Bakken, C. Adamo, J. Jaramillo, R. Gomperts, R. E. Stratmann, 
 O. Yazyev, A. J. Austin, R. Cammi, C. Pomelli, J. W. Ochterski, 
 R. L. Martin, K. Morokuma, V. G. Zakrzewski, G. A. Voth, 
 P. Salvador, J. J. Dannenberg, S. Dapprich, A. D. Daniels, 
 O. Farkas, J. B. Foresman, J. V. Ortiz, J. Cioslowski, 
 and D. J. Fox, Gaussian, Inc., Wallingford CT, 2009.
 
 ******************************************
 Gaussian 09:  EM64L-G09RevA.02 11-Jun-2009
                 8-Mar-2017 
 ******************************************
 %chk=bmim-cl-1.chk
 %nprocshared=8
 Will use up to    8 processors via shared memory.
 --------------------------------------
 # opt M062X/6-311+G* geom=connectivity
 --------------------------------------
 1/14=-1,18=20,19=15,26=3,38=1,57=2/1,3;
 2/9=110,12=2,17=6,18=5,40=1/2;
 3/5=4,6=6,7=11,11=2,16=1,25=1,30=1,71=1,74=-55/1,2,3;
 4//1;
 5/5=2,38=5/2;
 6/7=2,8=2,9=2,10=2,28=1/1;
 7//1,2,3,16;
 1/14=-1,18=20,19=15/3(2);
 2/9=110/2;
 99//99;
 2/9=110/2;
 3/5=4,6=6,7=11,11=2,16=1,25=1,30=1,71=1,74=-55/1,2,3;
 4/5=5,16=3/1;
 5/5=2,38=5/2;
 7//1,2,3,16;
 1/14=-1,18=20,19=15/3(-5);
 2/9=110/2;
 6/7=2,8=2,9=2,10=2,19=2,28=1/1;
 99/9=1/99;
 -------------------
 Title Card Required
 -------------------
 Symbolic Z-matrix:
 Charge =  0 Multiplicity = 1
 C                    -1.14717   0.852     0.00436 
 C                     0.50471   2.42076   0.23179 
 C                    -1.42155   2.10739  -0.74419 
 H                     1.40344   2.89005   0.57379 
 H                    -1.96807   2.23691  -1.65493 
 H                    -1.82031   0.13626   0.42802 
 C                     0.93263   0.14073   1.14279 
 H                     1.99162   0.29382   1.14139 
 H                     0.5264    0.46653   2.07753 
 C                     0.63011  -1.35632   0.94549 
 H                    -0.42888  -1.5094    0.9469 
 H                     1.03634  -1.68211   0.01076 
 C                     1.26708  -2.16413   2.09149 
 H                     2.32607  -2.01104   2.09008 
 H                     0.86085  -1.83833   3.02623 
 C                     0.96456  -3.66118   1.89419 
 H                     1.37079  -3.98698   0.95945 
 H                     1.40713  -4.22245   2.69043 
 H                    -0.09443  -3.81426   1.89559 
 C                    -0.99284   4.4231    0.36521 
 H                    -1.67075   4.83413  -0.35339 
 H                    -1.46324   4.39844   1.32595 
 H                    -0.11341   5.03063   0.41416 
 N                     0.32461   0.91183   0.04889 
 N                    -0.62345   3.05762  -0.03469 
 Cl                    1.81084   2.2619   -0.87996 
 

 GradGradGradGradGradGradGradGradGradGradGradGradGradGradGradGradGradGrad
 Berny optimization.
 Initialization pass.
                           ----------------------------
                           !    Initial Parameters    !
                           ! (Angstroms and Degrees)  !
 --------------------------                            --------------------------
 ! Name  Definition              Value          Derivative Info.                !
 --------------------------------------------------------------------------------
 ! R1    R(1,3)                  1.4872         estimate D2E/DX2                !
 ! R2    R(1,6)                  1.07           estimate D2E/DX2                !
 ! R3    R(1,24)                 1.4737         estimate D2E/DX2                !
 ! R4    R(2,4)                  1.07           estimate D2E/DX2                !
 ! R5    R(2,24)                 1.5306         estimate D2E/DX2                !
 ! R6    R(2,25)                 1.3226         estimate D2E/DX2                !
 ! R7    R(2,26)                 1.7226         estimate D2E/DX2                !
 ! R8    R(3,5)                  1.07           estimate D2E/DX2                !
 ! R9    R(3,25)                 1.4294         estimate D2E/DX2                !
 ! R10   R(4,26)                 1.6352         estimate D2E/DX2                !
 ! R11   R(7,8)                  1.07           estimate D2E/DX2                !
 ! R12   R(7,9)                  1.07           estimate D2E/DX2                !
 ! R13   R(7,10)                 1.54           estimate D2E/DX2                !
 ! R14   R(7,24)                 1.47           estimate D2E/DX2                !
 ! R15   R(10,11)                1.07           estimate D2E/DX2                !
 ! R16   R(10,12)                1.07           estimate D2E/DX2                !
 ! R17   R(10,13)                1.54           estimate D2E/DX2                !
 ! R18   R(13,14)                1.07           estimate D2E/DX2                !
 ! R19   R(13,15)                1.07           estimate D2E/DX2                !
 ! R20   R(13,16)                1.54           estimate D2E/DX2                !
 ! R21   R(16,17)                1.07           estimate D2E/DX2                !
 ! R22   R(16,18)                1.07           estimate D2E/DX2                !
 ! R23   R(16,19)                1.07           estimate D2E/DX2                !
 ! R24   R(20,21)                1.07           estimate D2E/DX2                !
 ! R25   R(20,22)                1.07           estimate D2E/DX2                !
 ! R26   R(20,23)                1.07           estimate D2E/DX2                !
 ! R27   R(20,25)                1.47           estimate D2E/DX2                !
 ! A1    A(3,1,6)              130.3829         estimate D2E/DX2                !
 ! A2    A(3,1,24)              99.5093         estimate D2E/DX2                !
 ! A3    A(6,1,24)             130.0531         estimate D2E/DX2                !
 ! A4    A(4,2,24)             124.7087         estimate D2E/DX2                !
 ! A5    A(4,2,25)             124.7254         estimate D2E/DX2                !
 ! A6    A(24,2,25)            110.5025         estimate D2E/DX2                !
 ! A7    A(24,2,26)             85.4793         estimate D2E/DX2                !
 ! A8    A(25,2,26)            124.1341         estimate D2E/DX2                !
 ! A9    A(1,3,5)              128.6707         estimate D2E/DX2                !
 ! A10   A(1,3,25)             102.0233         estimate D2E/DX2                !
 ! A11   A(5,3,25)             128.8426         estimate D2E/DX2                !
 ! A12   A(8,7,9)              109.4712         estimate D2E/DX2                !
 ! A13   A(8,7,10)             109.4712         estimate D2E/DX2                !
 ! A14   A(8,7,24)             109.4712         estimate D2E/DX2                !
 ! A15   A(9,7,10)             109.4712         estimate D2E/DX2                !
 ! A16   A(9,7,24)             109.4712         estimate D2E/DX2                !
 ! A17   A(10,7,24)            109.4712         estimate D2E/DX2                !
 ! A18   A(7,10,11)            109.4712         estimate D2E/DX2                !
 ! A19   A(7,10,12)            109.4712         estimate D2E/DX2                !
 ! A20   A(7,10,13)            109.4712         estimate D2E/DX2                !
 ! A21   A(11,10,12)           109.4712         estimate D2E/DX2                !
 ! A22   A(11,10,13)           109.4712         estimate D2E/DX2                !
 ! A23   A(12,10,13)           109.4712         estimate D2E/DX2                !
 ! A24   A(10,13,14)           109.4712         estimate D2E/DX2                !
 ! A25   A(10,13,15)           109.4712         estimate D2E/DX2                !
 ! A26   A(10,13,16)           109.4712         estimate D2E/DX2                !
 ! A27   A(14,13,15)           109.4712         estimate D2E/DX2                !
 ! A28   A(14,13,16)           109.4712         estimate D2E/DX2                !
 ! A29   A(15,13,16)           109.4712         estimate D2E/DX2                !
 ! A30   A(13,16,17)           109.4712         estimate D2E/DX2                !
 ! A31   A(13,16,18)           109.4712         estimate D2E/DX2                !
 ! A32   A(13,16,19)           109.4712         estimate D2E/DX2                !
 ! A33   A(17,16,18)           109.4712         estimate D2E/DX2                !
 ! A34   A(17,16,19)           109.4712         estimate D2E/DX2                !
 ! A35   A(18,16,19)           109.4712         estimate D2E/DX2                !
 ! A36   A(21,20,22)           109.4712         estimate D2E/DX2                !
 ! A37   A(21,20,23)           109.4712         estimate D2E/DX2                !
 ! A38   A(21,20,25)           109.4712         estimate D2E/DX2                !
 ! A39   A(22,20,23)           109.4712         estimate D2E/DX2                !
 ! A40   A(22,20,25)           109.4712         estimate D2E/DX2                !
 ! A41   A(23,20,25)           109.4712         estimate D2E/DX2                !
 ! A42   A(1,24,2)              99.2736         estimate D2E/DX2                !
 ! A43   A(1,24,7)             114.4737         estimate D2E/DX2                !
 ! A44   A(2,24,7)             112.3046         estimate D2E/DX2                !
 ! A45   A(2,25,3)             104.8423         estimate D2E/DX2                !
 ! A46   A(2,25,20)            127.3583         estimate D2E/DX2                !
 ! A47   A(3,25,20)            127.7501         estimate D2E/DX2                !
 ! D1    D(6,1,3,5)            -58.789          estimate D2E/DX2                !
 ! D2    D(6,1,3,25)           128.5631         estimate D2E/DX2                !
 ! D3    D(24,1,3,5)           123.7399         estimate D2E/DX2                !
 ! D4    D(24,1,3,25)          -48.908          estimate D2E/DX2                !
 ! D5    D(3,1,24,2)            37.0391         estimate D2E/DX2                !
 ! D6    D(3,1,24,7)           156.8304         estimate D2E/DX2                !
 ! D7    D(6,1,24,2)          -140.4443         estimate D2E/DX2                !
 ! D8    D(6,1,24,7)           -20.653          estimate D2E/DX2                !
 ! D9    D(4,2,24,1)           162.6875         estimate D2E/DX2                !
 ! D10   D(4,2,24,7)            41.3088         estimate D2E/DX2                !
 ! D11   D(25,2,24,1)          -14.5281         estimate D2E/DX2                !
 ! D12   D(25,2,24,7)         -135.9067         estimate D2E/DX2                !
 ! D13   D(26,2,24,1)         -139.3748         estimate D2E/DX2                !
 ! D14   D(26,2,24,7)           99.2465         estimate D2E/DX2                !
 ! D15   D(4,2,25,3)           166.7252         estimate D2E/DX2                !
 ! D16   D(4,2,25,20)          -15.6862         estimate D2E/DX2                !
 ! D17   D(24,2,25,3)          -16.0598         estimate D2E/DX2                !
 ! D18   D(24,2,25,20)         161.5288         estimate D2E/DX2                !
 ! D19   D(26,2,25,3)           82.6733         estimate D2E/DX2                !
 ! D20   D(26,2,25,20)         -99.7381         estimate D2E/DX2                !
 ! D21   D(1,3,25,2)            40.527          estimate D2E/DX2                !
 ! D22   D(1,3,25,20)         -137.0489         estimate D2E/DX2                !
 ! D23   D(5,3,25,2)          -132.1031         estimate D2E/DX2                !
 ! D24   D(5,3,25,20)           50.321          estimate D2E/DX2                !
 ! D25   D(8,7,10,11)          180.0            estimate D2E/DX2                !
 ! D26   D(8,7,10,12)          -60.0            estimate D2E/DX2                !
 ! D27   D(8,7,10,13)           60.0            estimate D2E/DX2                !
 ! D28   D(9,7,10,11)           60.0            estimate D2E/DX2                !
 ! D29   D(9,7,10,12)          180.0            estimate D2E/DX2                !
 ! D30   D(9,7,10,13)          -60.0            estimate D2E/DX2                !
 ! D31   D(24,7,10,11)         -60.0            estimate D2E/DX2                !
 ! D32   D(24,7,10,12)          60.0            estimate D2E/DX2                !
 ! D33   D(24,7,10,13)         180.0            estimate D2E/DX2                !
 ! D34   D(8,7,24,1)          -176.108          estimate D2E/DX2                !
 ! D35   D(8,7,24,2)           -63.892          estimate D2E/DX2                !
 ! D36   D(9,7,24,1)           -56.108          estimate D2E/DX2                !
 ! D37   D(9,7,24,2)            56.108          estimate D2E/DX2                !
 ! D38   D(10,7,24,1)           63.892          estimate D2E/DX2                !
 ! D39   D(10,7,24,2)          176.108          estimate D2E/DX2                !
 ! D40   D(7,10,13,14)         -60.0            estimate D2E/DX2                !
 ! D41   D(7,10,13,15)          60.0            estimate D2E/DX2                !
 ! D42   D(7,10,13,16)         180.0            estimate D2E/DX2                !
 ! D43   D(11,10,13,14)        180.0            estimate D2E/DX2                !
 ! D44   D(11,10,13,15)        -60.0            estimate D2E/DX2                !
 ! D45   D(11,10,13,16)         60.0            estimate D2E/DX2                !
 ! D46   D(12,10,13,14)         60.0            estimate D2E/DX2                !
 ! D47   D(12,10,13,15)        180.0            estimate D2E/DX2                !
 ! D48   D(12,10,13,16)        -60.0            estimate D2E/DX2                !
 ! D49   D(10,13,16,17)         60.0            estimate D2E/DX2                !
 ! D50   D(10,13,16,18)        180.0            estimate D2E/DX2                !
 ! D51   D(10,13,16,19)        -60.0            estimate D2E/DX2                !
 ! D52   D(14,13,16,17)        -60.0            estimate D2E/DX2                !
 ! D53   D(14,13,16,18)         60.0            estimate D2E/DX2                !
 ! D54   D(14,13,16,19)        180.0            estimate D2E/DX2                !
 ! D55   D(15,13,16,17)        180.0            estimate D2E/DX2                !
 ! D56   D(15,13,16,18)        -60.0            estimate D2E/DX2                !
 ! D57   D(15,13,16,19)         60.0            estimate D2E/DX2                !
 ! D58   D(21,20,25,2)         151.4742         estimate D2E/DX2                !
 ! D59   D(21,20,25,3)         -31.4742         estimate D2E/DX2                !
 ! D60   D(22,20,25,2)         -88.5258         estimate D2E/DX2                !
 ! D61   D(22,20,25,3)          88.5258         estimate D2E/DX2                !
 ! D62   D(23,20,25,2)          31.4742         estimate D2E/DX2                !
 ! D63   D(23,20,25,3)        -151.4742         estimate D2E/DX2                !
 --------------------------------------------------------------------------------
 Trust Radius=3.00D-01 FncErr=1.00D-07 GrdErr=1.00D-06
 Number of steps in this run= 147 maximum allowed number of steps= 156.
 GradGradGradGradGradGradGradGradGradGradGradGradGradGradGradGradGradGrad

                          Input orientation:                          
 ---------------------------------------------------------------------
 Center     Atomic      Atomic             Coordinates (Angstroms)
 Number     Number       Type             X           Y           Z
 ---------------------------------------------------------------------
      1          6           0       -1.147166    0.851999    0.004358
      2          6           0        0.504714    2.420757    0.231794
      3          6           0       -1.421553    2.107393   -0.744190
      4          1           0        1.403438    2.890050    0.573788
      5          1           0       -1.968073    2.236911   -1.654926
      6          1           0       -1.820315    0.136260    0.428020
      7          6           0        0.932630    0.140732    1.142794
      8          1           0        1.991622    0.293819    1.141387
      9          1           0        0.526401    0.466530    2.077531
     10          6           0        0.630111   -1.356316    0.945493
     11          1           0       -0.428880   -1.509403    0.946899
     12          1           0        1.036341   -1.682114    0.010756
     13          6           0        1.267080   -2.164129    2.091489
     14          1           0        2.326071   -2.011042    2.090083
     15          1           0        0.860850   -1.838332    3.026227
     16          6           0        0.964560   -3.661178    1.894188
     17          1           0        1.370790   -3.986975    0.959451
     18          1           0        1.407129   -4.222451    2.690433
     19          1           0       -0.094431   -3.814265    1.895595
     20          6           0       -0.992839    4.423095    0.365211
     21          1           0       -1.670749    4.834131   -0.353390
     22          1           0       -1.463237    4.398444    1.325950
     23          1           0       -0.113405    5.030631    0.414160
     24          7           0        0.324615    0.911827    0.048888
     25          7           0       -0.623453    3.057617   -0.034691
     26         17           0        1.810844    2.261902   -0.879957
 ---------------------------------------------------------------------
                    Distance matrix (angstroms):
                    1          2          3          4          5
     1  C    0.000000
     2  C    2.289418   0.000000
     3  C    1.487154   2.182028   0.000000
     4  H    3.314133   1.070000   3.214062   0.000000
     5  H    2.311947   3.115797   1.070000   4.094001   0.000000
     6  H    1.070000   3.265454   2.327756   4.242309   2.961964
     7  C    2.475376   2.492297   3.601478   2.846783   4.542608
     8  H    3.384728   2.749930   4.300490   2.721864   5.222467
     9  H    2.692110   2.688163   3.801193   2.983938   4.825753
    10  C    2.986821   3.845955   4.365963   4.332184   5.140430
    11  H    2.642071   4.102332   4.114170   4.780354   4.813884
    12  H    3.345066   4.143070   4.579470   4.621303   5.211502
    13  C    4.391096   5.006081   5.789277   5.278895   6.623519
    14  H    4.960910   5.139204   6.248144   5.212591   7.107030
    15  H    4.516824   5.106420   5.915585   5.354106   6.820822
    16  C    5.329128   6.321783   6.777240   6.697361   7.482246
    17  H    5.537867   6.506812   6.916711   6.887908   7.531251
    18  H    6.284064   7.140830   7.737247   7.420772   8.485134
    19  H    5.143835   6.480949   6.617836   6.995614   7.261781
    20  C    3.592598   2.503962   2.603276   2.852346   3.132322
    21  H    4.032307   3.301432   2.765849   3.753630   2.920265
    22  H    3.797865   2.996875   3.088063   3.325481   3.716545
    23  H    4.324068   2.688266   3.405635   2.628380   3.940277
    24  N    1.473669   1.530608   2.259968   2.313600   3.148849
    25  N    2.267279   1.322636   1.429433   2.122878   2.259806
    26  Cl   3.394063   1.722556   3.238934   1.635214   3.857644
                    6          7          8          9         10
     6  H    0.000000
     7  C    2.844227   0.000000
     8  H    3.881311   1.070000   0.000000
     9  H    2.887393   1.070000   1.747303   0.000000
    10  C    2.915502   1.540000   2.148263   2.148263   0.000000
    11  H    2.216649   2.148263   3.024610   2.468846   1.070000
    12  H    3.411902   2.148263   2.468846   3.024610   1.070000
    13  C    4.194154   2.514809   2.732978   2.732978   1.540000
    14  H    4.956398   2.732978   2.514809   3.062243   2.148263
    15  H    4.223546   2.732978   3.062243   2.514809   2.148263
    16  C    4.932111   3.875582   4.154945   4.154945   2.514809
    17  H    5.240863   4.154945   4.329403   4.668704   2.732978
    18  H    5.876502   4.653783   4.810184   4.810184   3.444314
    19  H    4.554020   4.154945   4.668704   4.329403   2.732978
    20  C    4.366419   4.759275   5.153676   4.571055   6.030945
    21  H    4.764762   5.571727   6.021773   5.460109   6.730727
    22  H    4.370354   4.888951   5.368246   4.470289   6.135481
    23  H    5.183493   5.053336   5.234251   4.899712   6.451994
    24  N    2.312135   1.470000   2.086720   2.086720   2.457987
    25  N    3.190753   3.509428   3.982506   3.535163   4.692013
    26  Cl   4.406185   3.059761   2.826988   3.690513   4.221125
                   11         12         13         14         15
    11  H    0.000000
    12  H    1.747303   0.000000
    13  C    2.148263   2.148263   0.000000
    14  H    3.024610   2.468846   1.070000   0.000000
    15  H    2.468846   3.024610   1.070000   1.747303   0.000000
    16  C    2.732978   2.732978   1.540000   2.148263   2.148263
    17  H    3.062243   2.514809   2.148263   2.468846   3.024610
    18  H    3.710993   3.710993   2.148263   2.468846   2.468846
    19  H    2.514809   3.062243   2.148263   3.024610   2.468846
    20  C    5.987566   6.443352   7.174873   7.442343   7.051428
    21  H    6.593437   7.065577   7.973953   8.294669   7.896364
    22  H    6.009679   6.704536   7.148990   7.484937   6.869476
    23  H    6.569276   6.822433   7.515567   7.638385   7.413145
    24  N    2.690081   2.690081   3.810770   4.088455   4.088455
    25  N    4.675367   5.022153   5.946545   6.237440   5.961769
    26  Cl   4.751474   4.116853   5.358631   5.229211   5.742184
                   16         17         18         19         20
    16  C    0.000000
    17  H    1.070000   0.000000
    18  H    1.070000   1.747303   0.000000
    19  H    1.070000   1.747303   1.747303   0.000000
    20  C    8.457225   8.756092   9.268871   8.426347   0.000000
    21  H    9.174243   9.422655  10.037921   9.073999   1.070000
    22  H    8.436504   8.858967   9.188071   8.345461   1.070000
    23  H    8.882569   9.155184   9.649506   8.968121   1.070000
    24  N    4.972628   5.091352   5.874555   5.091352   3.763609
    25  N    7.168303   7.388613   8.034236   7.157418   1.470000
    26  Cl   6.595070   6.528823   7.413332   6.946478   3.752578
                   21         22         23         24         25
    21  H    0.000000
    22  H    1.747303   0.000000
    23  H    1.747303   1.747303   0.000000
    24  N    4.419024   4.121141   4.158105   0.000000
    25  N    2.086720   2.086720   2.086720   2.347389   0.000000
    26  Cl   4.360633   4.488925   3.611556   2.212314   2.696931
                   26
    26  Cl   0.000000
 Stoichiometry    C8H15ClN2
 Framework group  C1[X(C8H15ClN2)]
 Deg. of freedom    72
 Full point group                 C1      NOp   1
 Largest Abelian subgroup         C1      NOp   1
 Largest concise Abelian subgroup C1      NOp   1
                         Standard orientation:                         
 ---------------------------------------------------------------------
 Center     Atomic      Atomic             Coordinates (Angstroms)
 Number     Number       Type             X           Y           Z
 ---------------------------------------------------------------------
      1          6           0       -0.374395   -1.390374   -0.656704
      2          6           0       -1.445748    0.325861    0.414826
      3          6           0       -1.829730   -1.327653   -0.956195
      4          1           0       -1.602679    1.162170    1.063563
      5          1           0       -2.341445   -1.617275   -1.850156
      6          1           0        0.295962   -2.224290   -0.646476
      7          6           0        1.042643    0.253342    0.533965
      8          1           0        1.102075    1.291167    0.787513
      9          1           0        0.956723   -0.327929    1.428192
     10          6           0        2.314461   -0.162494   -0.228374
     11          1           0        2.255028   -1.200319   -0.481923
     12          1           0        2.400381    0.418777   -1.122602
     13          6           0        3.548156    0.078769    0.661226
     14          1           0        3.607588    1.116594    0.914774
     15          1           0        3.462236   -0.502501    1.555453
     16          6           0        4.819974   -0.337066   -0.101113
     17          1           0        4.905894    0.244204   -0.995340
     18          1           0        5.677152   -0.169435    0.516986
     19          1           0        4.760541   -1.374891   -0.354661
     20          6           0       -3.551133   -0.918032    0.953262
     21          1           0       -4.289111   -1.348524    0.309084
     22          1           0       -3.315315   -1.607820    1.736513
     23          1           0       -3.932599   -0.013009    1.377900
     24          7           0       -0.134975    0.023045   -0.315199
     25          7           0       -2.337179   -0.622304    0.178819
     26         17           0       -1.398983    1.836104   -0.412324
 ---------------------------------------------------------------------
 Rotational constants (GHZ):      1.8961380      0.4570743      0.4068099
 Standard basis: 6-311+G(d) (5D, 7F)
 There are   295 symmetry adapted basis functions of A   symmetry.
 Integral buffers will be    131072 words long.
 Raffenetti 2 integral format.
 Two-electron integral symmetry is turned on.
   295 basis functions,   488 primitive gaussians,   306 cartesian basis functions
    47 alpha electrons       47 beta electrons
       nuclear repulsion energy       736.5805368812 Hartrees.
 NAtoms=   26 NActive=   26 NUniq=   26 SFac= 7.50D-01 NAtFMM=   80 NAOKFM=F Big=F
 One-electron integrals computed using PRISM.
 NBasis=   295 RedAO= T  NBF=   295
 NBsUse=   295 1.00D-06 NBFU=   295
 Harris functional with IExCor= 1009 diagonalized for initial guess.
 ExpMin= 4.38D-02 ExpMax= 1.06D+05 ExpMxC= 3.62D+03 IAcc=2 IRadAn=         0 AccDes= 0.00D+00
 HarFok:  IExCor= 1009 AccDes= 0.00D+00 IRadAn=         0 IDoV= 1
 ScaDFX=  1.000000  1.000000  1.000000  1.000000
 FoFCou: FMM=F IPFlag=           0 FMFlag=      100000 FMFlg1=           0
         NFxFlg=           0 DoJE=T BraDBF=F KetDBF=T FulRan=T
         Omega=  0.000000  0.000000  1.000000  0.000000  0.000000 ICntrl=     500 IOpCl=  0
         NMat0=    1 NMatS0=    1 NMatT0=    0 NMatD0=    1 NMtDS0=    0 NMtDT0=    0
         I1Cent=           4 NGrid=           0.
 Petite list used in FoFCou.
 Initial guess orbital symmetries:
       Occupied  (A) (A) (A) (A) (A) (A) (A) (A) (A) (A) (A) (A)
                 (A) (A) (A) (A) (A) (A) (A) (A) (A) (A) (A) (A)
                 (A) (A) (A) (A) (A) (A) (A) (A) (A) (A) (A) (A)
                 (A) (A) (A) (A) (A) (A) (A) (A) (A) (A) (A)
       Virtual   (A) (A) (A) (A) (A) (A) (A) (A) (A) (A) (A) (A)
                 (A) (A) (A) (A) (A) (A) (A) (A) (A) (A) (A) (A)
                 (A) (A) (A) (A) (A) (A) (A) (A) (A) (A) (A) (A)
                 (A) (A) (A) (A) (A) (A) (A) (A) (A) (A) (A) (A)
                 (A) (A) (A) (A) (A) (A) (A) (A) (A) (A) (A) (A)
                 (A) (A) (A) (A) (A) (A) (A) (A) (A) (A) (A) (A)
                 (A) (A) (A) (A) (A) (A) (A) (A) (A) (A) (A) (A)
                 (A) (A) (A) (A) (A) (A) (A) (A) (A) (A) (A) (A)
                 (A) (A) (A) (A) (A) (A) (A) (A) (A) (A) (A) (A)
                 (A) (A) (A) (A) (A) (A) (A) (A) (A) (A) (A) (A)
                 (A) (A) (A) (A) (A) (A) (A) (A) (A) (A) (A) (A)
                 (A) (A) (A) (A) (A) (A) (A) (A) (A) (A) (A) (A)
                 (A) (A) (A) (A) (A) (A) (A) (A) (A) (A) (A) (A)
                 (A) (A) (A) (A) (A) (A) (A) (A) (A) (A) (A) (A)
                 (A) (A) (A) (A) (A) (A) (A) (A) (A) (A) (A) (A)
                 (A) (A) (A) (A) (A) (A) (A) (A) (A) (A) (A) (A)
                 (A) (A) (A) (A) (A) (A) (A) (A) (A) (A) (A) (A)
                 (A) (A) (A) (A) (A) (A) (A) (A) (A) (A) (A) (A)
                 (A) (A) (A) (A) (A) (A) (A) (A) (A) (A) (A) (A)
                 (A) (A) (A) (A) (A) (A) (A) (A) (A) (A) (A) (A)
                 (A) (A) (A) (A) (A) (A) (A) (A)
 The electronic state of the initial guess is 1-A.
 Requested convergence on RMS density matrix=1.00D-08 within 128 cycles.
 Requested convergence on MAX density matrix=1.00D-06.
 Requested convergence on             energy=1.00D-06.
 No special actions if energy rises.
 SCF Done:  E(RM062X) =  -883.214447999     A.U. after   16 cycles
             Convg  =    0.6272D-08             -V/T =  2.0019

 **********************************************************************

            Population analysis using the SCF density.

 **********************************************************************

 Orbital symmetries:
       Occupied  (A) (A) (A) (A) (A) (A) (A) (A) (A) (A) (A) (A)
                 (A) (A) (A) (A) (A) (A) (A) (A) (A) (A) (A) (A)
                 (A) (A) (A) (A) (A) (A) (A) (A) (A) (A) (A) (A)
                 (A) (A) (A) (A) (A) (A) (A) (A) (A) (A) (A)
       Virtual   (A) (A) (A) (A) (A) (A) (A) (A) (A) (A) (A) (A)
                 (A) (A) (A) (A) (A) (A) (A) (A) (A) (A) (A) (A)
                 (A) (A) (A) (A) (A) (A) (A) (A) (A) (A) (A) (A)
                 (A) (A) (A) (A) (A) (A) (A) (A) (A) (A) (A) (A)
                 (A) (A) (A) (A) (A) (A) (A) (A) (A) (A) (A) (A)
                 (A) (A) (A) (A) (A) (A) (A) (A) (A) (A) (A) (A)
                 (A) (A) (A) (A) (A) (A) (A) (A) (A) (A) (A) (A)
                 (A) (A) (A) (A) (A) (A) (A) (A) (A) (A) (A) (A)
                 (A) (A) (A) (A) (A) (A) (A) (A) (A) (A) (A) (A)
                 (A) (A) (A) (A) (A) (A) (A) (A) (A) (A) (A) (A)
                 (A) (A) (A) (A) (A) (A) (A) (A) (A) (A) (A) (A)
                 (A) (A) (A) (A) (A) (A) (A) (A) (A) (A) (A) (A)
                 (A) (A) (A) (A) (A) (A) (A) (A) (A) (A) (A) (A)
                 (A) (A) (A) (A) (A) (A) (A) (A) (A) (A) (A) (A)
                 (A) (A) (A) (A) (A) (A) (A) (A) (A) (A) (A) (A)
                 (A) (A) (A) (A) (A) (A) (A) (A) (A) (A) (A) (A)
                 (A) (A) (A) (A) (A) (A) (A) (A) (A) (A) (A) (A)
                 (A) (A) (A) (A) (A) (A) (A) (A) (A) (A) (A) (A)
                 (A) (A) (A) (A) (A) (A) (A) (A) (A) (A) (A) (A)
                 (A) (A) (A) (A) (A) (A) (A) (A) (A) (A) (A) (A)
                 (A) (A) (A) (A) (A) (A) (A) (A)
 The electronic state is 1-A.
 Alpha  occ. eigenvalues -- -102.62074 -14.77658 -14.77214 -10.63224 -10.58743
 Alpha  occ. eigenvalues --  -10.58391 -10.57980 -10.55839 -10.52908 -10.52868
 Alpha  occ. eigenvalues --  -10.51697  -9.76996  -7.49390  -7.48793  -7.48785
 Alpha  occ. eigenvalues --   -1.13093  -1.02080  -0.96102  -0.90023  -0.85495
 Alpha  occ. eigenvalues --   -0.80568  -0.79115  -0.72907  -0.69087  -0.67230
 Alpha  occ. eigenvalues --   -0.65570  -0.61169  -0.57212  -0.56580  -0.54472
 Alpha  occ. eigenvalues --   -0.53528  -0.52161  -0.51341  -0.49922  -0.48623
 Alpha  occ. eigenvalues --   -0.47643  -0.44847  -0.44650  -0.42834  -0.40470
 Alpha  occ. eigenvalues --   -0.40265  -0.38573  -0.37099  -0.33461  -0.30414
 Alpha  occ. eigenvalues --   -0.29634  -0.22189
 Alpha virt. eigenvalues --   -0.02690   0.01144   0.01699   0.02342   0.02883
 Alpha virt. eigenvalues --    0.03570   0.03916   0.04662   0.04870   0.05931
 Alpha virt. eigenvalues --    0.06375   0.06609   0.06792   0.07813   0.07903
 Alpha virt. eigenvalues --    0.08154   0.09041   0.09814   0.10365   0.10909
 Alpha virt. eigenvalues --    0.11124   0.11793   0.12552   0.12988   0.13097
 Alpha virt. eigenvalues --    0.14069   0.14712   0.15594   0.15865   0.16537
 Alpha virt. eigenvalues --    0.16961   0.18221   0.18632   0.18683   0.19327
 Alpha virt. eigenvalues --    0.19886   0.20115   0.20881   0.21444   0.21980
 Alpha virt. eigenvalues --    0.22474   0.22726   0.22903   0.23994   0.24456
 Alpha virt. eigenvalues --    0.24711   0.25184   0.25556   0.26040   0.26842
 Alpha virt. eigenvalues --    0.26979   0.27736   0.27979   0.28444   0.29398
 Alpha virt. eigenvalues --    0.29852   0.30667   0.30852   0.31141   0.32438
 Alpha virt. eigenvalues --    0.32514   0.33574   0.34409   0.35289   0.35705
 Alpha virt. eigenvalues --    0.36323   0.37919   0.39016   0.40736   0.41237
 Alpha virt. eigenvalues --    0.43393   0.44364   0.45691   0.46865   0.48118
 Alpha virt. eigenvalues --    0.50970   0.51787   0.52035   0.52958   0.53615
 Alpha virt. eigenvalues --    0.54742   0.55481   0.56228   0.56705   0.59032
 Alpha virt. eigenvalues --    0.61005   0.62601   0.63059   0.64792   0.65200
 Alpha virt. eigenvalues --    0.66676   0.66824   0.67805   0.68839   0.70020
 Alpha virt. eigenvalues --    0.70929   0.71743   0.72584   0.73407   0.73682
 Alpha virt. eigenvalues --    0.74251   0.74845   0.75063   0.75886   0.77236
 Alpha virt. eigenvalues --    0.77927   0.79398   0.79932   0.80944   0.81196
 Alpha virt. eigenvalues --    0.82467   0.83590   0.87158   0.87878   0.90045
 Alpha virt. eigenvalues --    0.94096   0.95564   0.96970   0.97985   0.99019
 Alpha virt. eigenvalues --    0.99347   1.00861   1.01925   1.05001   1.05974
 Alpha virt. eigenvalues --    1.06961   1.08322   1.10300   1.14002   1.16164
 Alpha virt. eigenvalues --    1.19179   1.21821   1.24214   1.27936   1.31527
 Alpha virt. eigenvalues --    1.34391   1.35004   1.38471   1.41819   1.46472
 Alpha virt. eigenvalues --    1.49612   1.51396   1.52636   1.55932   1.56587
 Alpha virt. eigenvalues --    1.57650   1.60278   1.60891   1.63566   1.64108
 Alpha virt. eigenvalues --    1.64323   1.65456   1.67410   1.67956   1.69304
 Alpha virt. eigenvalues --    1.73327   1.74817   1.75881   1.77411   1.80221
 Alpha virt. eigenvalues --    1.81013   1.83017   1.83962   1.85612   1.86387
 Alpha virt. eigenvalues --    1.88442   1.90327   1.92598   1.94996   1.96655
 Alpha virt. eigenvalues --    1.99427   2.04905   2.16336   2.19550   2.23258
 Alpha virt. eigenvalues --    2.29965   2.32958   2.36428   2.40199   2.42099
 Alpha virt. eigenvalues --    2.47291   2.47906   2.51099   2.53388   2.55493
 Alpha virt. eigenvalues --    2.56170   2.57665   2.58385   2.59099   2.61863
 Alpha virt. eigenvalues --    2.62481   2.62644   2.64826   2.65465   2.67088
 Alpha virt. eigenvalues --    2.69515   2.70755   2.72121   2.75441   2.76844
 Alpha virt. eigenvalues --    2.84769   2.88385   3.02143   3.03267   3.04044
 Alpha virt. eigenvalues --    3.05847   3.08212   3.10602   3.16568   3.20952
 Alpha virt. eigenvalues --    3.22862   3.25481   3.28078   3.30542   3.33001
 Alpha virt. eigenvalues --    3.34641   3.40990   3.44629   3.48810   3.50926
 Alpha virt. eigenvalues --    3.52909   3.57492   3.67981   3.74695   3.89458
 Alpha virt. eigenvalues --    3.97264   4.08530   4.09952   4.28146   4.57997
 Alpha virt. eigenvalues --    4.78837   4.83496   4.98791  10.10777  23.57058
 Alpha virt. eigenvalues --   23.60949  23.66277  23.72408  23.77076  23.81409
 Alpha virt. eigenvalues --   23.82522  23.84151  26.15378  26.23967  26.74473
 Alpha virt. eigenvalues --   35.59885  35.64692 216.23526
          Condensed to atoms (all electrons):
              1          2          3          4          5          6
     1  C    6.685648   0.083027  -0.072732   0.002607   0.056723   0.322314
     2  C    0.083027  10.827470  -0.519333   0.320618   0.013977   0.003051
     3  C   -0.072732  -0.519333   6.360007   0.028145   0.306076   0.011282
     4  H    0.002607   0.320618   0.028145   0.525016  -0.001076   0.000139
     5  H    0.056723   0.013977   0.306076  -0.001076   0.412025  -0.000697
     6  H    0.322314   0.003051   0.011282   0.000139  -0.000697   0.411376
     7  C   -1.109331   0.139287   0.243218   0.086811  -0.014978   0.071430
     8  H   -0.007384  -0.025394   0.005491  -0.002908   0.000025  -0.000378
     9  H    0.037018   0.031100  -0.002000   0.002251  -0.000006   0.002133
    10  C    0.568003  -0.587496  -0.231424   0.030286   0.002381  -0.048021
    11  H    0.008732   0.015684  -0.003082  -0.000036   0.000014   0.001734
    12  H    0.015096   0.005567  -0.001326  -0.000091   0.000000   0.001042
    13  C   -0.145545  -0.065655   0.053852   0.005556  -0.000430   0.007908
    14  H   -0.003900  -0.000438  -0.001379   0.000009   0.000000  -0.000023
    15  H    0.007944   0.000260   0.000696  -0.000006   0.000000   0.000129
    16  C   -0.017306  -0.018499  -0.001447   0.000685  -0.000032  -0.000426
    17  H    0.002206  -0.000135   0.000336   0.000000   0.000000   0.000007
    18  H   -0.000056   0.000240  -0.000051   0.000000   0.000000   0.000001
    19  H   -0.002675  -0.000568  -0.000270   0.000000   0.000000  -0.000034
    20  C   -0.097744  -0.028583  -0.074399  -0.027598   0.000216   0.002320
    21  H   -0.000736  -0.027215   0.025015  -0.000185   0.000229   0.000022
    22  H    0.042561   0.018553  -0.014843   0.003437  -0.000661  -0.000173
    23  H   -0.008965   0.053657  -0.011620  -0.000840   0.000097   0.000021
    24  N    0.586052  -0.622421  -0.628963   0.053178   0.009059  -0.061793
    25  N   -0.489803  -0.682577   0.416582  -0.099673  -0.040684   0.015076
    26  Cl  -0.100091  -1.477272   0.334502  -0.215812   0.004082  -0.006327
              7          8          9         10         11         12
     1  C   -1.109331  -0.007384   0.037018   0.568003   0.008732   0.015096
     2  C    0.139287  -0.025394   0.031100  -0.587496   0.015684   0.005567
     3  C    0.243218   0.005491  -0.002000  -0.231424  -0.003082  -0.001326
     4  H    0.086811  -0.002908   0.002251   0.030286  -0.000036  -0.000091
     5  H   -0.014978   0.000025  -0.000006   0.002381   0.000014   0.000000
     6  H    0.071430  -0.000378   0.002133  -0.048021   0.001734   0.001042
     7  C    8.755896   0.369625   0.375386  -1.860383   0.038121  -0.092622
     8  H    0.369625   0.429153  -0.039671   0.013322   0.004120  -0.004020
     9  H    0.375386  -0.039671   0.475312  -0.007417  -0.007368   0.004564
    10  C   -1.860383   0.013322  -0.007417   8.179599   0.328153   0.502374
    11  H    0.038121   0.004120  -0.007368   0.328153   0.479581  -0.031309
    12  H   -0.092622  -0.004020   0.004564   0.502374  -0.031309   0.405569
    13  C    0.676045  -0.010402  -0.052242  -0.834212  -0.041274  -0.080614
    14  H    0.007673   0.000637  -0.000507  -0.085808   0.006401  -0.006287
    15  H   -0.020280   0.000486   0.002763   0.001659  -0.006754   0.005575
    16  C   -0.272899   0.009876  -0.005002   0.157846   0.000952  -0.007975
    17  H    0.001121   0.000097  -0.000004  -0.027027  -0.000080   0.003944
    18  H    0.011066  -0.000030  -0.000011   0.059975  -0.000309  -0.000209
    19  H   -0.000837  -0.000062   0.000054  -0.052077   0.003037  -0.000405
    20  C    0.001244   0.000140  -0.002102  -0.025932   0.000128   0.000160
    21  H   -0.000790   0.000001   0.000028  -0.000312   0.000000   0.000000
    22  H    0.000433  -0.000028   0.000104   0.001741  -0.000005  -0.000001
    23  H    0.001355   0.000005   0.000047   0.000485   0.000000   0.000000
    24  N   -0.210295  -0.066273  -0.073959   0.161533  -0.017796   0.006216
    25  N   -0.002458   0.001465   0.006206  -0.095823   0.000072   0.000986
    26  Cl  -0.386127   0.051762  -0.011720   0.179457  -0.003008  -0.000475
             13         14         15         16         17         18
     1  C   -0.145545  -0.003900   0.007944  -0.017306   0.002206  -0.000056
     2  C   -0.065655  -0.000438   0.000260  -0.018499  -0.000135   0.000240
     3  C    0.053852  -0.001379   0.000696  -0.001447   0.000336  -0.000051
     4  H    0.005556   0.000009  -0.000006   0.000685   0.000000   0.000000
     5  H   -0.000430   0.000000   0.000000  -0.000032   0.000000   0.000000
     6  H    0.007908  -0.000023   0.000129  -0.000426   0.000007   0.000001
     7  C    0.676045   0.007673  -0.020280  -0.272899   0.001121   0.011066
     8  H   -0.010402   0.000637   0.000486   0.009876   0.000097  -0.000030
     9  H   -0.052242  -0.000507   0.002763  -0.005002  -0.000004  -0.000011
    10  C   -0.834212  -0.085808   0.001659   0.157846  -0.027027   0.059975
    11  H   -0.041274   0.006401  -0.006754   0.000952  -0.000080  -0.000309
    12  H   -0.080614  -0.006287   0.005575  -0.007975   0.003944  -0.000209
    13  C    6.393575   0.450727   0.385912  -0.156348   0.000194  -0.084173
    14  H    0.450727   0.453329  -0.036961  -0.036180  -0.007436  -0.004031
    15  H    0.385912  -0.036961   0.464942  -0.057584   0.006744  -0.004209
    16  C   -0.156348  -0.036180  -0.057584   6.343118   0.366918   0.367254
    17  H    0.000194  -0.007436   0.006744   0.366918   0.451547  -0.024842
    18  H   -0.084173  -0.004031  -0.004209   0.367254  -0.024842   0.440107
    19  H    0.016979   0.006275  -0.008402   0.385171  -0.034444  -0.025377
    20  C    0.000503  -0.000035   0.000084  -0.000250   0.000001   0.000001
    21  H   -0.000029   0.000000   0.000000  -0.000001   0.000000   0.000000
    22  H    0.000036   0.000000   0.000000   0.000001   0.000000   0.000000
    23  H   -0.000032   0.000000   0.000000  -0.000001   0.000000   0.000000
    24  N   -0.085494  -0.002894   0.001720  -0.055870   0.000278   0.000348
    25  N    0.001219  -0.000183   0.000257  -0.002041   0.000004   0.000003
    26  Cl  -0.040767  -0.000602   0.000263  -0.006544   0.000087  -0.000007
             19         20         21         22         23         24
     1  C   -0.002675  -0.097744  -0.000736   0.042561  -0.008965   0.586052
     2  C   -0.000568  -0.028583  -0.027215   0.018553   0.053657  -0.622421
     3  C   -0.000270  -0.074399   0.025015  -0.014843  -0.011620  -0.628963
     4  H    0.000000  -0.027598  -0.000185   0.003437  -0.000840   0.053178
     5  H    0.000000   0.000216   0.000229  -0.000661   0.000097   0.009059
     6  H   -0.000034   0.002320   0.000022  -0.000173   0.000021  -0.061793
     7  C   -0.000837   0.001244  -0.000790   0.000433   0.001355  -0.210295
     8  H   -0.000062   0.000140   0.000001  -0.000028   0.000005  -0.066273
     9  H    0.000054  -0.002102   0.000028   0.000104   0.000047  -0.073959
    10  C   -0.052077  -0.025932  -0.000312   0.001741   0.000485   0.161533
    11  H    0.003037   0.000128   0.000000  -0.000005   0.000000  -0.017796
    12  H   -0.000405   0.000160   0.000000  -0.000001   0.000000   0.006216
    13  C    0.016979   0.000503  -0.000029   0.000036  -0.000032  -0.085494
    14  H    0.006275  -0.000035   0.000000   0.000000   0.000000  -0.002894
    15  H   -0.008402   0.000084   0.000000   0.000000   0.000000   0.001720
    16  C    0.385171  -0.000250  -0.000001   0.000001  -0.000001  -0.055870
    17  H   -0.034444   0.000001   0.000000   0.000000   0.000000   0.000278
    18  H   -0.025377   0.000001   0.000000   0.000000   0.000000   0.000348
    19  H    0.458448  -0.000004   0.000000   0.000000   0.000000  -0.000371
    20  C   -0.000004   5.680724   0.417456   0.397160   0.400164  -0.045325
    21  H    0.000000   0.417456   0.443544  -0.035182  -0.018281  -0.006601
    22  H    0.000000   0.397160  -0.035182   0.469369  -0.037183   0.009048
    23  H    0.000000   0.400164  -0.018281  -0.037183   0.442059   0.000539
    24  N   -0.000371  -0.045325  -0.006601   0.009048   0.000539   8.220608
    25  N   -0.000006   0.016525  -0.055648  -0.099425  -0.083071  -0.196361
    26  Cl   0.000016   0.039297   0.004791  -0.011151   0.000452  -0.585858
             25         26
     1  C   -0.489803  -0.100091
     2  C   -0.682577  -1.477272
     3  C    0.416582   0.334502
     4  H   -0.099673  -0.215812
     5  H   -0.040684   0.004082
     6  H    0.015076  -0.006327
     7  C   -0.002458  -0.386127
     8  H    0.001465   0.051762
     9  H    0.006206  -0.011720
    10  C   -0.095823   0.179457
    11  H    0.000072  -0.003008
    12  H    0.000986  -0.000475
    13  C    0.001219  -0.040767
    14  H   -0.000183  -0.000602
    15  H    0.000257   0.000263
    16  C   -0.002041  -0.006544
    17  H    0.000004   0.000087
    18  H    0.000003  -0.000007
    19  H   -0.000006   0.000016
    20  C    0.016525   0.039297
    21  H   -0.055648   0.004791
    22  H   -0.099425  -0.011151
    23  H   -0.083071   0.000452
    24  N   -0.196361  -0.585858
    25  N    7.504756   0.322733
    26  Cl   0.322733  18.772415
 Mulliken atomic charges:
              1
     1  C   -0.361663
     2  C   -1.456907
     3  C   -0.222336
     4  H    0.289487
     5  H    0.253659
     6  H    0.267884
     7  C   -0.807711
     8  H    0.270346
     9  H    0.265044
    10  C   -0.330883
    11  H    0.224294
    12  H    0.274242
    13  C   -0.395290
    14  H    0.261615
    15  H    0.254761
    16  C   -0.993419
    17  H    0.260484
    18  H    0.264307
    19  H    0.255551
    20  C   -0.654151
    21  H    0.253895
    22  H    0.256207
    23  H    0.261113
    24  N    0.611695
    25  N    0.561872
    26  Cl   0.135903
 Sum of Mulliken atomic charges =   0.00000
 Mulliken charges with hydrogens summed into heavy atoms:
              1
     1  C   -0.093778
     2  C   -1.167420
     3  C    0.031324
     7  C   -0.272321
    10  C    0.167653
    13  C    0.121086
    16  C   -0.213077
    20  C    0.117064
    24  N    0.611695
    25  N    0.561872
    26  Cl   0.135903
 Sum of Mulliken charges with hydrogens summed into heavy atoms =   0.00000
 Electronic spatial extent (au):  <R**2>=           2865.1178
 Charge=              0.0000 electrons
 Dipole moment (field-independent basis, Debye):
    X=             -0.1171    Y=             -2.5326    Z=              1.9542  Tot=              3.2010
 Quadrupole moment (field-independent basis, Debye-Ang):
   XX=            -68.0961   YY=            -79.9346   ZZ=            -76.8981
   XY=              4.9621   XZ=             -2.3220   YZ=              2.7602
 Traceless Quadrupole moment (field-independent basis, Debye-Ang):
   XX=              6.8802   YY=             -4.9583   ZZ=             -1.9219
   XY=              4.9621   XZ=             -2.3220   YZ=              2.7602
 Octapole moment (field-independent basis, Debye-Ang**2):
  XXX=            -45.9824  YYY=             -0.5082  ZZZ=              1.4811  XYY=              9.3834
  XXY=             -9.6808  XXZ=             10.1536  XZZ=             -8.9870  YZZ=             -0.5521
  YYZ=              1.1509  XYZ=             -5.5224
 Hexadecapole moment (field-independent basis, Debye-Ang**3):
 XXXX=          -2966.6322 YYYY=           -637.0297 ZZZZ=           -294.8777 XXXY=             62.2459
 XXXZ=            -10.0727 YYYX=             -4.8188 YYYZ=              1.2931 ZZZX=              1.4769
 ZZZY=             -3.0310 XXYY=           -620.1540 XXZZ=           -538.7582 YYZZ=           -145.0882
 XXYZ=              4.6115 YYXZ=             -4.6276 ZZXY=              9.3584
 N-N= 7.365805368812D+02 E-N=-3.550295555379D+03  KE= 8.815104353267D+02
 Calling FoFJK, ICntrl=      2127 FMM=F ISym2X=0 I1Cent= 0 IOpClX= 0 NMat=1 NMatS=1 NMatT=0.
 ***** Axes restored to original set *****
 -------------------------------------------------------------------
 Center     Atomic                   Forces (Hartrees/Bohr)
 Number     Number              X              Y              Z
 -------------------------------------------------------------------
      1        6           0.029504063    0.070315136   -0.083879320
      2        6           0.025582056   -0.027155067    0.008867140
      3        6          -0.018109372   -0.061802120    0.083647280
      4        1          -0.029970329    0.022417917    0.100213562
      5        1          -0.017921835    0.010643397    0.004444740
      6        1           0.000171354   -0.018274865   -0.015671039
      7        6          -0.017707932   -0.021107731   -0.013308799
      8        1           0.015121722    0.004681419   -0.001757682
      9        1          -0.002548129    0.004028567    0.018490575
     10        6           0.021894515    0.016041916    0.027480026
     11        1          -0.014663015   -0.004789035   -0.001796918
     12        1           0.003285418   -0.004128146   -0.015428501
     13        6          -0.019250180   -0.014822581   -0.026459351
     14        1           0.015795028    0.003842635    0.002551905
     15        1          -0.003252516    0.005900759    0.015186618
     16        6           0.008177305    0.024425692    0.007979313
     17        1           0.004546170   -0.007356767   -0.012664179
     18        1           0.004589032   -0.011816110    0.009341986
     19        1          -0.014598247   -0.005276923   -0.000459428
     20        6           0.007995739   -0.028405972   -0.008687571
     21        1          -0.007636438    0.004796409   -0.009501308
     22        1          -0.008767273    0.000544923    0.014557459
     23        1           0.011086406    0.008167438   -0.000819653
     24        7          -0.097569294   -0.014548491    0.104817872
     25        7          -0.011386808    0.022305142   -0.049779174
     26       17           0.115632561    0.021372458   -0.157365556
 -------------------------------------------------------------------
 Cartesian Forces:  Max     0.157365556 RMS     0.037347441

 GradGradGradGradGradGradGradGradGradGradGradGradGradGradGradGradGradGrad
 Berny optimization.
 Internal  Forces:  Max     0.127839626 RMS     0.020885478
 Search for a local minimum.
 Step number   1 out of a maximum of  147
 All quantities printed in internal units (Hartrees-Bohrs-Radians)
 Mixed Optimization -- RFO/linear search
 Second derivative matrix not updated -- first step.
     Eigenvalues ---    0.00237   0.00237   0.00237   0.00766   0.00766
     Eigenvalues ---    0.00824   0.00971   0.01149   0.01752   0.03009
     Eigenvalues ---    0.03507   0.03633   0.03840   0.03840   0.04502
     Eigenvalues ---    0.04896   0.04896   0.05496   0.05720   0.05720
     Eigenvalues ---    0.07537   0.07537   0.07655   0.07655   0.08860
     Eigenvalues ---    0.09175   0.11374   0.11701   0.11701   0.12453
     Eigenvalues ---    0.14009   0.15203   0.15707   0.15972   0.16000
     Eigenvalues ---    0.16000   0.16000   0.16000   0.16000   0.16000
     Eigenvalues ---    0.18982   0.21555   0.21948   0.21948   0.21985
     Eigenvalues ---    0.24954   0.27785   0.28519   0.28519   0.28519
     Eigenvalues ---    0.28954   0.31614   0.32649   0.35740   0.35740
     Eigenvalues ---    0.37015   0.37230   0.37230   0.37230   0.37230
     Eigenvalues ---    0.37230   0.37230   0.37230   0.37230   0.37230
     Eigenvalues ---    0.37230   0.37230   0.37230   0.37230   0.37230
     Eigenvalues ---    0.38590   0.571601000.000001000.000001000.00000
     Eigenvalues --- 1000.000001000.000001000.000001000.000001000.00000
     Eigenvalues --- 1000.000001000.000001000.000001000.000001000.00000
     Eigenvalues --- 1000.000001000.000001000.000001000.000001000.00000
     Eigenvalues --- 1000.000001000.000001000.000001000.000001000.00000
     Eigenvalues --- 1000.000001000.000001000.000001000.000001000.00000
     Eigenvalues --- 1000.000001000.000001000.000001000.000001000.00000
     Eigenvalues --- 1000.000001000.000001000.000001000.000001000.00000
     Eigenvalues --- 1000.000001000.000001000.000001000.000001000.00000
     Eigenvalues --- 1000.000001000.000001000.000001000.000001000.00000
     Eigenvalues --- 1000.000001000.000001000.000001000.000001000.00000
     Eigenvalues --- 1000.000001000.000001000.000001000.000001000.00000
     Eigenvalues --- 1000.000001000.000001000.000001000.000001000.00000
     Eigenvalues --- 1000.000001000.00000
 RFO step:  Lambda=-1.69073206D-01 EMin= 2.36824079D-03
 Linear search not attempted -- first point.
 Maximum step size (   0.300) exceeded in Quadratic search.
    -- Step size scaled by   0.403
 Iteration  1 RMS(Cart)=  0.03910066 RMS(Int)=  0.00164360
 Iteration  2 RMS(Cart)=  0.00218377 RMS(Int)=  0.00032030
 Iteration  3 RMS(Cart)=  0.00000644 RMS(Int)=  0.00032023
 Iteration  4 RMS(Cart)=  0.00000000 RMS(Int)=  0.00032023
 Variable       Old X    -DE/DX   Delta X   Delta X   Delta X     New X
                                 (Linear)    (Quad)   (Total)
    R1        2.81031  -0.06266   0.00000  -0.05208  -0.05264   2.75768
    R2        2.02201   0.00591   0.00000   0.00440   0.00440   2.02641
    R3        2.78483  -0.02493   0.00000  -0.01927  -0.01937   2.76546
    R4        2.02201  -0.00143   0.00000   0.00012  -0.00007   2.02194
    R5        2.89243   0.02704   0.00000   0.02158   0.02169   2.91412
    R6        2.49942   0.04068   0.00000   0.02135   0.02164   2.52106
    R7        3.25516   0.12784   0.00000   0.10677   0.10609   3.36124
    R8        2.02201   0.00666   0.00000   0.00495   0.00495   2.02696
    R9        2.70124  -0.00755   0.00000  -0.00196  -0.00168   2.69955
   R10        3.09011   0.07448   0.00000   0.09436   0.09521   3.18531
   R11        2.02201   0.01564   0.00000   0.01164   0.01164   2.03364
   R12        2.02201   0.01834   0.00000   0.01365   0.01365   2.03566
   R13        2.91018  -0.00398   0.00000  -0.00353  -0.00353   2.90665
   R14        2.77790   0.01284   0.00000   0.00983   0.00983   2.78773
   R15        2.02201   0.01520   0.00000   0.01131   0.01131   2.03332
   R16        2.02201   0.01598   0.00000   0.01189   0.01189   2.03390
   R17        2.91018  -0.00233   0.00000  -0.00207  -0.00207   2.90811
   R18        2.02201   0.01618   0.00000   0.01204   0.01204   2.03404
   R19        2.02201   0.01630   0.00000   0.01213   0.01213   2.03414
   R20        2.91018  -0.00105   0.00000  -0.00093  -0.00093   2.90925
   R21        2.02201   0.01502   0.00000   0.01117   0.01117   2.03318
   R22        2.02201   0.01505   0.00000   0.01120   0.01120   2.03321
   R23        2.02201   0.01521   0.00000   0.01132   0.01132   2.03333
   R24        2.02201   0.01306   0.00000   0.00972   0.00972   2.03173
   R25        2.02201   0.01690   0.00000   0.01258   0.01258   2.03458
   R26        2.02201   0.01372   0.00000   0.01021   0.01021   2.03222
   R27        2.77790  -0.01573   0.00000  -0.01204  -0.01204   2.76586
    A1        2.27561  -0.01216   0.00000  -0.01381  -0.01364   2.26197
    A2        1.73676   0.03302   0.00000   0.03735   0.03646   1.77323
    A3        2.26985  -0.02132   0.00000  -0.02480  -0.02454   2.24532
    A4        2.17658   0.02053   0.00000   0.01746   0.01630   2.19287
    A5        2.17687   0.02420   0.00000   0.01518   0.01468   2.19155
    A6        1.92863  -0.04625   0.00000  -0.03599  -0.03685   1.89178
    A7        1.49189   0.08299   0.00000   0.10209   0.10322   1.59511
    A8        2.16655  -0.03287   0.00000  -0.04355  -0.04324   2.12331
    A9        2.24573   0.00534   0.00000   0.00242   0.00284   2.24856
   A10        1.78064   0.00393   0.00000   0.01187   0.01089   1.79153
   A11        2.24873  -0.00993   0.00000  -0.01601  -0.01554   2.23319
   A12        1.91063  -0.00003   0.00000  -0.00151  -0.00150   1.90913
   A13        1.91063  -0.00172   0.00000  -0.00244  -0.00242   1.90821
   A14        1.91063  -0.00636   0.00000  -0.00889  -0.00887   1.90176
   A15        1.91063  -0.00204   0.00000  -0.00093  -0.00098   1.90965
   A16        1.91063   0.00180   0.00000   0.00468   0.00466   1.91529
   A17        1.91063   0.00835   0.00000   0.00909   0.00908   1.91971
   A18        1.91063  -0.00008   0.00000   0.00082   0.00082   1.91146
   A19        1.91063  -0.00280   0.00000  -0.00320  -0.00320   1.90743
   A20        1.91063   0.00641   0.00000   0.00716   0.00715   1.91779
   A21        1.91063  -0.00046   0.00000  -0.00212  -0.00212   1.90851
   A22        1.91063  -0.00255   0.00000  -0.00267  -0.00268   1.90795
   A23        1.91063  -0.00052   0.00000   0.00000   0.00000   1.91064
   A24        1.91063  -0.00207   0.00000  -0.00205  -0.00206   1.90858
   A25        1.91063  -0.00160   0.00000  -0.00131  -0.00132   1.90931
   A26        1.91063   0.00724   0.00000   0.00808   0.00808   1.91871
   A27        1.91063  -0.00052   0.00000  -0.00239  -0.00239   1.90824
   A28        1.91063  -0.00142   0.00000  -0.00106  -0.00106   1.90957
   A29        1.91063  -0.00163   0.00000  -0.00128  -0.00128   1.90935
   A30        1.91063   0.00266   0.00000   0.00321   0.00321   1.91384
   A31        1.91063   0.00547   0.00000   0.00679   0.00678   1.91741
   A32        1.91063   0.00284   0.00000   0.00343   0.00342   1.91405
   A33        1.91063  -0.00386   0.00000  -0.00463  -0.00464   1.90599
   A34        1.91063  -0.00317   0.00000  -0.00407  -0.00407   1.90656
   A35        1.91063  -0.00395   0.00000  -0.00474  -0.00475   1.90588
   A36        1.91063  -0.00043   0.00000  -0.00058  -0.00058   1.91006
   A37        1.91063  -0.00055   0.00000  -0.00116  -0.00116   1.90947
   A38        1.91063  -0.00170   0.00000  -0.00235  -0.00235   1.90828
   A39        1.91063   0.00048   0.00000   0.00112   0.00112   1.91175
   A40        1.91063   0.00225   0.00000   0.00300   0.00299   1.91363
   A41        1.91063  -0.00004   0.00000  -0.00003  -0.00003   1.91060
   A42        1.73265   0.01591   0.00000   0.02411   0.02349   1.75614
   A43        1.99794   0.00925   0.00000   0.01192   0.01123   2.00917
   A44        1.96009  -0.00109   0.00000   0.00799   0.00834   1.96843
   A45        1.82984   0.02411   0.00000   0.02759   0.02726   1.85710
   A46        2.22282  -0.00885   0.00000  -0.01113  -0.01109   2.21174
   A47        2.22966  -0.01574   0.00000  -0.01727  -0.01719   2.21247
    D1       -1.02606   0.00969   0.00000   0.01852   0.01805  -1.00801
    D2        2.24385   0.01567   0.00000   0.03329   0.03294   2.27679
    D3        2.15967   0.02064   0.00000   0.04806   0.04828   2.20795
    D4       -0.85361   0.02663   0.00000   0.06283   0.06316  -0.79044
    D5        0.64645  -0.02230   0.00000  -0.05888  -0.06009   0.58637
    D6        2.73721  -0.00961   0.00000  -0.02915  -0.02964   2.70756
    D7       -2.45121  -0.01173   0.00000  -0.02988  -0.03065  -2.48186
    D8       -0.36046   0.00096   0.00000  -0.00015  -0.00020  -0.36067
    D9        2.83943  -0.00092   0.00000  -0.01350  -0.01350   2.82593
   D10        0.72098  -0.02047   0.00000  -0.04492  -0.04481   0.67617
   D11       -0.25356   0.03197   0.00000   0.05991   0.05919  -0.19437
   D12       -2.37202   0.01242   0.00000   0.02849   0.02788  -2.34414
   D13       -2.43255   0.04181   0.00000   0.07195   0.07139  -2.36116
   D14        1.73218   0.02226   0.00000   0.04053   0.04008   1.77226
   D15        2.90990   0.02585   0.00000   0.05707   0.05651   2.96641
   D16       -0.27378   0.01413   0.00000   0.03676   0.03606  -0.23771
   D17       -0.28030  -0.00717   0.00000  -0.01628  -0.01606  -0.29635
   D18        2.81921  -0.01889   0.00000  -0.03659  -0.03650   2.78271
   D19        1.44292   0.05056   0.00000   0.06876   0.06884   1.51176
   D20       -1.74076   0.03884   0.00000   0.04846   0.04840  -1.69236
   D21        0.70733  -0.01048   0.00000  -0.02503  -0.02509   0.68224
   D22       -2.39195   0.00107   0.00000  -0.00483  -0.00483  -2.39678
   D23       -2.30563  -0.00607   0.00000  -0.01214  -0.01226  -2.31789
   D24        0.87827   0.00548   0.00000   0.00807   0.00800   0.88627
   D25        3.14159   0.00115   0.00000   0.00205   0.00206  -3.13954
   D26       -1.04720  -0.00118   0.00000  -0.00199  -0.00199  -1.04919
   D27        1.04720   0.00040   0.00000   0.00044   0.00043   1.04763
   D28        1.04720   0.00349   0.00000   0.00596   0.00597   1.05317
   D29        3.14159   0.00116   0.00000   0.00192   0.00192  -3.13967
   D30       -1.04720   0.00273   0.00000   0.00435   0.00435  -1.04285
   D31       -1.04720  -0.00258   0.00000  -0.00476  -0.00476  -1.05196
   D32        1.04720  -0.00491   0.00000  -0.00881  -0.00881   1.03839
   D33        3.14159  -0.00333   0.00000  -0.00638  -0.00639   3.13521
   D34       -3.07366  -0.01100   0.00000  -0.01891  -0.01883  -3.09249
   D35       -1.11513   0.01424   0.00000   0.02438   0.02429  -1.09084
   D36       -0.97927  -0.01383   0.00000  -0.02333  -0.02326  -1.00253
   D37        0.97927   0.01141   0.00000   0.01995   0.01985   0.99912
   D38        1.11513  -0.01012   0.00000  -0.01604  -0.01593   1.09919
   D39        3.07366   0.01513   0.00000   0.02724   0.02719   3.10085
   D40       -1.04720   0.00212   0.00000   0.00352   0.00352  -1.04368
   D41        1.04720  -0.00076   0.00000  -0.00146  -0.00146   1.04574
   D42        3.14159   0.00070   0.00000   0.00113   0.00113  -3.14047
   D43        3.14159  -0.00015   0.00000  -0.00023  -0.00023   3.14136
   D44       -1.04720  -0.00303   0.00000  -0.00521  -0.00521  -1.05241
   D45        1.04720  -0.00157   0.00000  -0.00263  -0.00262   1.04457
   D46        1.04720   0.00230   0.00000   0.00400   0.00399   1.05119
   D47        3.14159  -0.00059   0.00000  -0.00099  -0.00098   3.14061
   D48       -1.04720   0.00087   0.00000   0.00160   0.00160  -1.04560
   D49        1.04720  -0.00043   0.00000  -0.00077  -0.00077   1.04643
   D50       -3.14159  -0.00017   0.00000  -0.00031  -0.00031   3.14128
   D51       -1.04720   0.00008   0.00000   0.00015   0.00015  -1.04705
   D52       -1.04720  -0.00145   0.00000  -0.00256  -0.00256  -1.04976
   D53        1.04720  -0.00120   0.00000  -0.00210  -0.00210   1.04510
   D54        3.14159  -0.00094   0.00000  -0.00164  -0.00164   3.13995
   D55        3.14159   0.00105   0.00000   0.00179   0.00179  -3.13980
   D56       -1.04720   0.00130   0.00000   0.00225   0.00225  -1.04495
   D57        1.04720   0.00156   0.00000   0.00271   0.00271   1.04991
   D58        2.64372   0.00597   0.00000   0.01057   0.01041   2.65413
   D59       -0.54933  -0.00741   0.00000  -0.01320  -0.01303  -0.56236
   D60       -1.54507   0.00578   0.00000   0.01026   0.01009  -1.53498
   D61        1.54507  -0.00760   0.00000  -0.01351  -0.01335   1.53172
   D62        0.54933   0.00771   0.00000   0.01345   0.01328   0.56261
   D63       -2.64372  -0.00566   0.00000  -0.01032  -0.01016  -2.65388
         Item               Value     Threshold  Converged?
 Maximum Force            0.127840     0.000450     NO 
 RMS     Force            0.020885     0.000300     NO 
 Maximum Displacement     0.291684     0.001800     NO 
 RMS     Displacement     0.040453     0.001200     NO 
 Predicted change in Energy=-6.197689D-02
 GradGradGradGradGradGradGradGradGradGradGradGradGradGradGradGradGradGrad

                          Input orientation:                          
 ---------------------------------------------------------------------
 Center     Atomic      Atomic             Coordinates (Angstroms)
 Number     Number       Type             X           Y           Z
 ---------------------------------------------------------------------
      1          6           0       -1.130019    0.856377   -0.039555
      2          6           0        0.543828    2.434532    0.203444
      3          6           0       -1.434865    2.104834   -0.730918
      4          1           0        1.433289    2.904075    0.568421
      5          1           0       -2.013255    2.256671   -1.621383
      6          1           0       -1.795224    0.121715    0.369911
      7          6           0        0.925430    0.136625    1.146883
      8          1           0        1.990760    0.288900    1.146814
      9          1           0        0.517173    0.466391    2.087623
     10          6           0        0.624923   -1.359681    0.955515
     11          1           0       -0.439777   -1.515088    0.953056
     12          1           0        1.035321   -1.687404    0.016060
     13          6           0        1.255139   -2.170773    2.101461
     14          1           0        2.320305   -2.015904    2.104308
     15          1           0        0.844610   -1.841381    3.040421
     16          6           0        0.956457   -3.668876    1.910248
     17          1           0        1.366708   -4.002985    0.973415
     18          1           0        1.397833   -4.234798    2.711832
     19          1           0       -0.107606   -3.828634    1.908421
     20          6           0       -0.994792    4.399084    0.377507
     21          1           0       -1.701973    4.804970   -0.323266
     22          1           0       -1.442739    4.358421    1.355707
     23          1           0       -0.121594    5.026071    0.407637
     24          7           0        0.329765    0.915638    0.044822
     25          7           0       -0.612936    3.050857   -0.045202
     26         17           0        1.866332    2.416255   -0.985842
 ---------------------------------------------------------------------
                    Distance matrix (angstroms):
                    1          2          3          4          5
     1  C    0.000000
     2  C    2.313307   0.000000
     3  C    1.459301   2.212907   0.000000
     4  H    3.336653   1.069963   3.248596   0.000000
     5  H    2.289783   3.146475   1.072622   4.134373   0.000000
     6  H    1.072328   3.293630   2.296616   4.266642   2.927597
     7  C    2.480030   2.513180   3.601524   2.872511   4.560017
     8  H    3.386557   2.754505   4.307946   2.735773   5.250445
     9  H    2.718496   2.724779   3.799885   3.014888   4.833725
    10  C    2.996815   3.868881   4.369170   4.356938   5.165112
    11  H    2.661870   4.138707   4.114584   4.815114   4.830086
    12  H    3.341049   4.155362   4.587032   4.641677   5.246977
    13  C    4.408692   5.031627   5.791313   5.304341   6.644112
    14  H    4.975026   5.155146   6.254621   5.229908   7.135504
    15  H    4.545692   5.140267   5.915372   5.383000   6.833290
    16  C    5.350984   6.350987   6.784534   6.725441   7.510240
    17  H    5.556361   6.535412   6.932461   6.919244   7.572346
    18  H    6.315079   7.176440   7.750331   7.453789   8.517713
    19  H    5.175835   6.523693   6.628256   7.035577   7.288481
    20  C    3.569735   2.501423   2.585702   2.857810   3.102058
    21  H    3.999877   3.307571   2.743768   3.773378   2.876775
    22  H    3.782706   2.995915   3.071274   3.317601   3.688619
    23  H    4.313149   2.683385   3.399208   2.635598   3.919806
    24  N    1.463421   1.542084   2.264923   2.333625   3.172436
    25  N    2.254585   1.334085   1.428543   2.141288   2.252992
    26  Cl   3.508105   1.778694   3.325638   1.685594   3.934536
                    6          7          8          9         10
     6  H    0.000000
     7  C    2.829464   0.000000
     8  H    3.868489   1.076158   0.000000
     9  H    2.901124   1.077224   1.757294   0.000000
    10  C    2.897340   1.538134   2.149401   2.151237   0.000000
    11  H    2.203728   2.151631   3.033055   2.475733   1.075986
    12  H    3.377885   2.148935   2.469261   3.032934   1.076292
    13  C    4.190284   2.518733   2.739066   2.738507   1.538907
    14  H    4.951275   2.737831   2.517442   3.068118   2.150505
    15  H    4.237228   2.739440   3.072052   2.518105   2.151077
    16  C    4.930818   3.881434   4.161323   4.162315   2.520677
    17  H    5.232130   4.166676   4.340482   4.683854   2.745473
    18  H    5.887225   4.667073   4.823348   4.823523   3.456637
    19  H    4.562930   4.167780   4.683724   4.343928   2.745972
    20  C    4.351625   4.737906   5.137993   4.547155   6.010071
    21  H    4.735195   5.555001   6.016004   5.436936   6.712127
    22  H    4.364139   4.845141   5.328560   4.418694   6.093609
    23  H    5.182197   5.054643   5.239199   4.901128   6.452541
    24  N    2.291631   1.475201   2.089520   2.099996   2.468513
    25  N    3.185906   3.504338   3.978510   3.536320   4.688985
    26  Cl   4.528794   3.260448   3.014854   3.881802   4.423533
                   11         12         13         14         15
    11  H    0.000000
    12  H    1.756009   0.000000
    13  C    2.149767   2.151944   0.000000
    14  H    3.032202   2.473838   1.076369   0.000000
    15  H    2.472491   3.034278   1.076420   1.756258   0.000000
    16  C    2.739432   2.742334   1.539509   2.151757   2.151636
    17  H    3.074644   2.527501   2.154515   2.477248   3.036055
    18  H    3.723832   3.726636   2.157107   2.478614   2.478400
    19  H    2.524987   3.077691   2.154726   3.036300   2.477360
    20  C    5.967975   6.426301   7.155224   7.424539   7.029789
    21  H    6.570028   7.053995   7.955175   8.282280   7.872323
    22  H    5.972115   6.669890   7.103877   7.439954   6.819661
    23  H    6.571566   6.823674   7.520571   7.644015   7.418019
    24  N    2.706568   2.697122   3.822567   4.098496   4.103637
    25  N    4.677003   5.017133   5.946704   6.236695   5.964857
    26  Cl   4.953072   4.305160   5.562897   5.422098   5.948292
                   16         17         18         19         20
    16  C    0.000000
    17  H    1.075914   0.000000
    18  H    1.075927   1.754080   0.000000
    19  H    1.075990   1.754490   1.754077   0.000000
    20  C    8.440892   8.747946   9.258383   8.415828   0.000000
    21  H    9.157615   9.416914  10.026865   9.058784   1.075143
    22  H    8.396496   8.829057   9.151575   8.313600   1.076655
    23  H    8.889439   9.168369   9.663418   8.981000   1.075404
    24  N    4.989021   5.111789   5.897517   5.115899   3.741594
    25  N    7.172280   7.396841   8.045197   7.169338   1.463630
    26  Cl   6.800296   6.730152   7.624223   7.160435   3.738498
                   21         22         23         24         25
    21  H    0.000000
    22  H    1.756577   0.000000
    23  H    1.755193   1.757844   0.000000
    24  N    4.403448   4.088146   4.151026   0.000000
    25  N    2.083323   2.088263   2.085173   2.335797   0.000000
    26  Cl   4.344856   4.494976   3.564376   2.382259   2.726590
                   26
    26  Cl   0.000000
 Stoichiometry    C8H15ClN2
 Framework group  C1[X(C8H15ClN2)]
 Deg. of freedom    72
 Full point group                 C1      NOp   1
 Largest Abelian subgroup         C1      NOp   1
 Largest concise Abelian subgroup C1      NOp   1
                         Standard orientation:                         
 ---------------------------------------------------------------------
 Center     Atomic      Atomic             Coordinates (Angstroms)
 Number     Number       Type             X           Y           Z
 ---------------------------------------------------------------------
      1          6           0       -0.340261   -1.373710   -0.709976
      2          6           0       -1.437348    0.319160    0.422270
      3          6           0       -1.778418   -1.376998   -0.957468
      4          1           0       -1.600646    1.124923    1.107032
      5          1           0       -2.309257   -1.692621   -1.834457
      6          1           0        0.359913   -2.185431   -0.737418
      7          6           0        1.071672    0.236435    0.540795
      8          1           0        1.115461    1.275779    0.816408
      9          1           0        0.999386   -0.366649    1.430444
     10          6           0        2.348402   -0.140216   -0.229889
     11          1           0        2.306815   -1.178594   -0.508791
     12          1           0        2.419579    0.464787   -1.117193
     13          6           0        3.584102    0.100053    0.655296
     14          1           0        3.626396    1.138730    0.934457
     15          1           0        3.511191   -0.504798    1.542718
     16          6           0        4.862870   -0.275046   -0.115508
     17          1           0        4.940809    0.328566   -1.002733
     18          1           0        5.725998   -0.106325    0.504299
     19          1           0        4.825645   -1.313367   -0.395255
     20          6           0       -3.475064   -1.027437    0.962182
     21          1           0       -4.202937   -1.492319    0.321856
     22          1           0       -3.197704   -1.712016    1.745514
     23          1           0       -3.896253   -0.137521    1.394782
     24          7           0       -0.113947    0.015302   -0.308690
     25          7           0       -2.292353   -0.674728    0.175414
     26         17           0       -1.576237    1.894082   -0.392644
 ---------------------------------------------------------------------
 Rotational constants (GHZ):      1.8080294      0.4496040      0.3973934
 Standard basis: 6-311+G(d) (5D, 7F)
 There are   295 symmetry adapted basis functions of A   symmetry.
 Integral buffers will be    131072 words long.
 Raffenetti 2 integral format.
 Two-electron integral symmetry is turned on.
   295 basis functions,   488 primitive gaussians,   306 cartesian basis functions
    47 alpha electrons       47 beta electrons
       nuclear repulsion energy       728.6860375471 Hartrees.
 NAtoms=   26 NActive=   26 NUniq=   26 SFac= 7.50D-01 NAtFMM=   80 NAOKFM=F Big=F
 One-electron integrals computed using PRISM.
 NBasis=   295 RedAO= T  NBF=   295
 NBsUse=   295 1.00D-06 NBFU=   295
 Initial guess read from the read-write file.
 B after Tr=     0.000000    0.000000    0.000000
         Rot=    1.000000    0.000000    0.000000    0.000000 Ang=   0.00 deg.
 Initial guess orbital symmetries:
       Occupied  (A) (A) (A) (A) (A) (A) (A) (A) (A) (A) (A) (A)
                 (A) (A) (A) (A) (A) (A) (A) (A) (A) (A) (A) (A)
                 (A) (A) (A) (A) (A) (A) (A) (A) (A) (A) (A) (A)
                 (A) (A) (A) (A) (A) (A) (A) (A) (A) (A) (A)
       Virtual   (A) (A) (A) (A) (A) (A) (A) (A) (A) (A) (A) (A)
                 (A) (A) (A) (A) (A) (A) (A) (A) (A) (A) (A) (A)
                 (A) (A) (A) (A) (A) (A) (A) (A) (A) (A) (A) (A)
                 (A) (A) (A) (A) (A) (A) (A) (A) (A) (A) (A) (A)
                 (A) (A) (A) (A) (A) (A) (A) (A) (A) (A) (A) (A)
                 (A) (A) (A) (A) (A) (A) (A) (A) (A) (A) (A) (A)
                 (A) (A) (A) (A) (A) (A) (A) (A) (A) (A) (A) (A)
                 (A) (A) (A) (A) (A) (A) (A) (A) (A) (A) (A) (A)
                 (A) (A) (A) (A) (A) (A) (A) (A) (A) (A) (A) (A)
                 (A) (A) (A) (A) (A) (A) (A) (A) (A) (A) (A) (A)
                 (A) (A) (A) (A) (A) (A) (A) (A) (A) (A) (A) (A)
                 (A) (A) (A) (A) (A) (A) (A) (A) (A) (A) (A) (A)
                 (A) (A) (A) (A) (A) (A) (A) (A) (A) (A) (A) (A)
                 (A) (A) (A) (A) (A) (A) (A) (A) (A) (A) (A) (A)
                 (A) (A) (A) (A) (A) (A) (A) (A) (A) (A) (A) (A)
                 (A) (A) (A) (A) (A) (A) (A) (A) (A) (A) (A) (A)
                 (A) (A) (A) (A) (A) (A) (A) (A) (A) (A) (A) (A)
                 (A) (A) (A) (A) (A) (A) (A) (A) (A) (A) (A) (A)
                 (A) (A) (A) (A) (A) (A) (A) (A) (A) (A) (A) (A)
                 (A) (A) (A) (A) (A) (A) (A) (A) (A) (A) (A) (A)
                 (A) (A) (A) (A) (A) (A) (A) (A)
 Harris functional with IExCor= 1009 diagonalized for initial guess.
 ExpMin= 4.38D-02 ExpMax= 1.06D+05 ExpMxC= 3.62D+03 IAcc=2 IRadAn=         0 AccDes= 0.00D+00
 HarFok:  IExCor= 1009 AccDes= 0.00D+00 IRadAn=         0 IDoV= 1
 ScaDFX=  1.000000  1.000000  1.000000  1.000000
 FoFCou: FMM=F IPFlag=           0 FMFlag=      100000 FMFlg1=           0
         NFxFlg=           0 DoJE=T BraDBF=F KetDBF=T FulRan=T
         Omega=  0.000000  0.000000  1.000000  0.000000  0.000000 ICntrl=     500 IOpCl=  0
         NMat0=    1 NMatS0=    1 NMatT0=    0 NMatD0=    1 NMtDS0=    0 NMtDT0=    0
         I1Cent=           4 NGrid=           0.
 Petite list used in FoFCou.
 Requested convergence on RMS density matrix=1.00D-08 within 128 cycles.
 Requested convergence on MAX density matrix=1.00D-06.
 Requested convergence on             energy=1.00D-06.
 No special actions if energy rises.
 SCF Done:  E(RM062X) =  -883.272100126     A.U. after   14 cycles
             Convg  =    0.5790D-08             -V/T =  2.0024
 Calling FoFJK, ICntrl=      2127 FMM=F ISym2X=0 I1Cent= 0 IOpClX= 0 NMat=1 NMatS=1 NMatT=0.
 ***** Axes restored to original set *****
 -------------------------------------------------------------------
 Center     Atomic                   Forces (Hartrees/Bohr)
 Number     Number              X              Y              Z
 -------------------------------------------------------------------
      1        6           0.027585907    0.064844182   -0.072275366
      2        6           0.015136661   -0.033889701   -0.006551494
      3        6          -0.010728329   -0.057015916    0.074878391
      4        1          -0.029717889    0.012615611    0.091117480
      5        1          -0.016408893    0.009872650    0.006789120
      6        1           0.002333549   -0.016887437   -0.016485493
      7        6          -0.014019818   -0.014780463   -0.012290799
      8        1           0.010953523    0.004084979   -0.001289475
      9        1          -0.001063786    0.003147494    0.013804338
     10        6           0.017878543    0.013088239    0.021813460
     11        1          -0.010622566   -0.004167485   -0.001936157
     12        1           0.001524794   -0.002915751   -0.011514420
     13        6          -0.015588477   -0.012289283   -0.021398560
     14        1           0.011376447    0.003161139    0.002721046
[...]
                 (A) (A) (A) (A) (A) (A) (A) (A) (A) (A) (A) (A)
                 (A) (A) (A) (A) (A) (A) (A) (A) (A) (A) (A) (A)
                 (A) (A) (A) (A) (A) (A) (A) (A) (A) (A) (A)
       Virtual   (A) (A) (A) (A) (A) (A) (A) (A) (A) (A) (A) (A)
                 (A) (A) (A) (A) (A) (A) (A) (A) (A) (A) (A) (A)
                 (A) (A) (A) (A) (A) (A) (A) (A) (A) (A) (A) (A)
                 (A) (A) (A) (A) (A) (A) (A) (A) (A) (A) (A) (A)
                 (A) (A) (A) (A) (A) (A) (A) (A) (A) (A) (A) (A)
                 (A) (A) (A) (A) (A) (A) (A) (A) (A) (A) (A) (A)
                 (A) (A) (A) (A) (A) (A) (A) (A) (A) (A) (A) (A)
                 (A) (A) (A) (A) (A) (A) (A) (A) (A) (A) (A) (A)
                 (A) (A) (A) (A) (A) (A) (A) (A) (A) (A) (A) (A)
                 (A) (A) (A) (A) (A) (A) (A) (A) (A) (A) (A) (A)
                 (A) (A) (A) (A) (A) (A) (A) (A) (A) (A) (A) (A)
                 (A) (A) (A) (A) (A) (A) (A) (A) (A) (A) (A) (A)
                 (A) (A) (A) (A) (A) (A) (A) (A) (A) (A) (A) (A)
                 (A) (A) (A) (A) (A) (A) (A) (A) (A) (A) (A) (A)
                 (A) (A) (A) (A) (A) (A) (A) (A) (A) (A) (A) (A)
                 (A) (A) (A) (A) (A) (A) (A) (A) (A) (A) (A) (A)
                 (A) (A) (A) (A) (A) (A) (A) (A) (A) (A) (A) (A)
                 (A) (A) (A) (A) (A) (A) (A) (A) (A) (A) (A) (A)
                 (A) (A) (A) (A) (A) (A) (A) (A) (A) (A) (A) (A)
                 (A) (A) (A) (A) (A) (A) (A) (A) (A) (A) (A) (A)
                 (A) (A) (A) (A) (A) (A) (A) (A)
 The electronic state is 1-A.
 Alpha  occ. eigenvalues -- -102.51537 -14.84800 -14.84679 -10.65972 -10.61311
 Alpha  occ. eigenvalues --  -10.61174 -10.60421 -10.59889 -10.53869 -10.53668
 Alpha  occ. eigenvalues --  -10.52141  -9.65737  -7.37862  -7.37821  -7.37811
 Alpha  occ. eigenvalues --   -1.20481  -1.07991  -0.92900  -0.90364  -0.86717
 Alpha  occ. eigenvalues --   -0.82424  -0.76428  -0.74972  -0.73006  -0.71112
 Alpha  occ. eigenvalues --   -0.67319  -0.65093  -0.59783  -0.57358  -0.56350
 Alpha  occ. eigenvalues --   -0.55233  -0.54844  -0.53390  -0.52846  -0.49684
 Alpha  occ. eigenvalues --   -0.49402  -0.48844  -0.45631  -0.43142  -0.41739
 Alpha  occ. eigenvalues --   -0.40306  -0.39313  -0.37184  -0.34338  -0.25701
 Alpha  occ. eigenvalues --   -0.25514  -0.24959
 Alpha virt. eigenvalues --   -0.00780   0.00488   0.00586   0.02046   0.02509
 Alpha virt. eigenvalues --    0.02882   0.02999   0.03428   0.04163   0.05203
 Alpha virt. eigenvalues --    0.05497   0.06304   0.06766   0.07364   0.07406
 Alpha virt. eigenvalues --    0.07894   0.08893   0.09374   0.09828   0.10519
 Alpha virt. eigenvalues --    0.11096   0.11261   0.11804   0.12755   0.13634
 Alpha virt. eigenvalues --    0.13920   0.14408   0.15593   0.16088   0.16687
 Alpha virt. eigenvalues --    0.17007   0.17453   0.17776   0.18261   0.18629
 Alpha virt. eigenvalues --    0.19024   0.19388   0.20182   0.20605   0.20899
 Alpha virt. eigenvalues --    0.21337   0.21910   0.22551   0.22577   0.23092
 Alpha virt. eigenvalues --    0.23929   0.24219   0.24542   0.25230   0.26101
 Alpha virt. eigenvalues --    0.26169   0.26671   0.27654   0.28060   0.28355
 Alpha virt. eigenvalues --    0.28846   0.29003   0.29248   0.30522   0.30836
 Alpha virt. eigenvalues --    0.31419   0.33116   0.33439   0.34411   0.35103
 Alpha virt. eigenvalues --    0.36931   0.37185   0.40678   0.41938   0.43651
 Alpha virt. eigenvalues --    0.44490   0.45065   0.45544   0.47125   0.47753
 Alpha virt. eigenvalues --    0.48857   0.50321   0.52527   0.53482   0.55051
 Alpha virt. eigenvalues --    0.56664   0.56974   0.58171   0.59939   0.60480
 Alpha virt. eigenvalues --    0.62020   0.62774   0.63815   0.64029   0.65137
 Alpha virt. eigenvalues --    0.66454   0.67073   0.67604   0.68135   0.69635
 Alpha virt. eigenvalues --    0.70068   0.71080   0.71801   0.72211   0.72733
 Alpha virt. eigenvalues --    0.73124   0.73724   0.74818   0.75100   0.75635
 Alpha virt. eigenvalues --    0.76906   0.78752   0.79787   0.80420   0.81454
 Alpha virt. eigenvalues --    0.82107   0.84315   0.86364   0.88310   0.90216
 Alpha virt. eigenvalues --    0.93953   0.94298   0.95558   0.99040   1.00989
 Alpha virt. eigenvalues --    1.01363   1.02291   1.03564   1.05838   1.06989
 Alpha virt. eigenvalues --    1.10827   1.11863   1.12998   1.13590   1.15394
 Alpha virt. eigenvalues --    1.15983   1.18763   1.19557   1.21455   1.23924
 Alpha virt. eigenvalues --    1.28241   1.29400   1.31855   1.34747   1.36562
 Alpha virt. eigenvalues --    1.38381   1.41667   1.48430   1.52032   1.53865
 Alpha virt. eigenvalues --    1.56588   1.57781   1.58242   1.61216   1.62497
 Alpha virt. eigenvalues --    1.63056   1.64372   1.66378   1.67802   1.69204
 Alpha virt. eigenvalues --    1.70374   1.71773   1.74372   1.75755   1.77077
 Alpha virt. eigenvalues --    1.78683   1.83086   1.85407   1.85912   1.88163
 Alpha virt. eigenvalues --    1.88239   1.92211   1.92695   1.96516   1.98288
 Alpha virt. eigenvalues --    2.01519   2.07791   2.18955   2.22693   2.25955
 Alpha virt. eigenvalues --    2.28007   2.34182   2.39968   2.43454   2.44048
 Alpha virt. eigenvalues --    2.45699   2.48082   2.48199   2.53495   2.54413
 Alpha virt. eigenvalues --    2.55620   2.56682   2.57631   2.58005   2.59352
 Alpha virt. eigenvalues --    2.60693   2.62508   2.63165   2.63443   2.64768
 Alpha virt. eigenvalues --    2.66713   2.68102   2.72284   2.73284   2.80616
 Alpha virt. eigenvalues --    2.86282   2.87613   2.98986   3.01563   3.05090
 Alpha virt. eigenvalues --    3.05749   3.10899   3.14035   3.18706   3.19493
 Alpha virt. eigenvalues --    3.23113   3.25568   3.27754   3.28853   3.30036
 Alpha virt. eigenvalues --    3.36549   3.40245   3.45088   3.47085   3.55316
 Alpha virt. eigenvalues --    3.56562   3.59534   3.65936   3.72922   3.89639
 Alpha virt. eigenvalues --    3.95493   3.98146   4.00139   4.12283   4.67051
 Alpha virt. eigenvalues --    4.85386   4.90956   5.19290  10.04270  23.54268
 Alpha virt. eigenvalues --   23.59173  23.66794  23.71351  23.77173  23.82589
 Alpha virt. eigenvalues --   23.89066  24.16525  26.10137  26.23704  26.34287
 Alpha virt. eigenvalues --   35.52783  35.65637 216.14056
          Condensed to atoms (all electrons):
              1          2          3          4          5          6
     1  C    6.447774  -0.248674  -0.415918  -0.005871  -0.002033   0.390544
     2  C   -0.248674   8.258849  -0.674716   0.331942   0.024588   0.023436
     3  C   -0.415918  -0.674716   6.544325   0.024393   0.377078  -0.025310
     4  H   -0.005871   0.331942   0.024393   0.364196  -0.000148  -0.000153
     5  H   -0.002033   0.024588   0.377078  -0.000148   0.390000  -0.000693
     6  H    0.390544   0.023436  -0.025310  -0.000153  -0.000693   0.391004
     7  C   -0.605783  -1.026285   0.379930   0.002205   0.000590  -0.026618
     8  H   -0.003727   0.047174  -0.013191   0.006029   0.000014   0.000041
     9  H   -0.024288   0.021554   0.007996  -0.000689   0.000005  -0.000117
    10  C    0.295907   0.716133  -0.254153  -0.001880   0.000930   0.024848
    11  H    0.010111  -0.012373  -0.006403   0.000085   0.000033  -0.001063
    12  H    0.023014  -0.009823  -0.000358   0.000058  -0.000045   0.000134
    13  C   -0.173647  -0.114405   0.068309   0.002266   0.000009   0.002818
    14  H   -0.001104  -0.005755  -0.001556   0.000074   0.000000  -0.000014
    15  H    0.008625   0.003841   0.000509  -0.000022   0.000000   0.000038
    16  C   -0.001927  -0.001644  -0.010878   0.000296   0.000011   0.000994
    17  H    0.001005  -0.000969   0.000296   0.000000   0.000000   0.000005
    18  H    0.000209   0.000247   0.000001   0.000000   0.000000   0.000000
    19  H   -0.000241   0.000328  -0.000498   0.000000   0.000000  -0.000011
    20  C    0.155336  -0.089437  -0.275503  -0.000306  -0.007802   0.002023
    21  H    0.044226   0.049121  -0.054467  -0.000423   0.000388   0.000042
    22  H   -0.011392   0.006736   0.017098   0.002094   0.000196   0.000007
    23  H   -0.004849  -0.045555   0.008999   0.000380  -0.000119  -0.000021
    24  N   -0.019121  -0.097307   0.317500  -0.025928   0.016040  -0.074131
    25  N    0.203078  -0.140567   0.211767  -0.018696  -0.072754   0.020090
    26  Cl   0.109326  -0.684608   0.088289  -0.016397  -0.001516  -0.001893
              7          8          9         10         11         12
     1  C   -0.605783  -0.003727  -0.024288   0.295907   0.010111   0.023014
     2  C   -1.026285   0.047174   0.021554   0.716133  -0.012373  -0.009823
     3  C    0.379930  -0.013191   0.007996  -0.254153  -0.006403  -0.000358
     4  H    0.002205   0.006029  -0.000689  -0.001880   0.000085   0.000058
     5  H    0.000590   0.000014   0.000005   0.000930   0.000033  -0.000045
     6  H   -0.026618   0.000041  -0.000117   0.024848  -0.001063   0.000134
     7  C    9.114660   0.343559   0.411712  -2.635201  -0.037731  -0.059454
     8  H    0.343559   0.421536  -0.031977   0.030357   0.005004  -0.002185
     9  H    0.411712  -0.031977   0.434500   0.013393  -0.006648   0.001811
    10  C   -2.635201   0.030357   0.013393   9.048678   0.432926   0.447540
    11  H   -0.037731   0.005004  -0.006648   0.432926   0.485266  -0.028977
    12  H   -0.059454  -0.002185   0.001811   0.447540  -0.028977   0.334290
    13  C    0.896820  -0.013692  -0.032407  -1.653117  -0.078246  -0.072656
    14  H    0.004729   0.003952  -0.000463  -0.108563   0.006499  -0.004527
    15  H   -0.032648  -0.000742   0.002375   0.054012  -0.006741   0.004179
    16  C   -0.239652   0.008401   0.003649   0.260800   0.022033  -0.010037
    17  H    0.002076  -0.000001  -0.000029  -0.034374  -0.000451   0.002556
    18  H    0.004372  -0.000023  -0.000009   0.085084  -0.000133  -0.000198
    19  H    0.003642   0.000036   0.000047  -0.061931   0.003487   0.000225
    20  C   -0.112622   0.005997  -0.001542   0.044436  -0.000648   0.001134
    21  H   -0.004527   0.000007  -0.000004   0.000659   0.000000  -0.000001
    22  H    0.009963  -0.000064  -0.000015  -0.001115   0.000000  -0.000005
    23  H    0.002502  -0.000017   0.000008  -0.001434   0.000003   0.000010
    24  N    0.260963  -0.104483  -0.058841  -0.256805  -0.019705   0.017885
    25  N   -0.157905   0.019780  -0.013736   0.058371   0.002013   0.002349
    26  Cl   0.371293  -0.008209  -0.003707  -0.301998   0.003416   0.001738
             13         14         15         16         17         18
     1  C   -0.173647  -0.001104   0.008625  -0.001927   0.001005   0.000209
     2  C   -0.114405  -0.005755   0.003841  -0.001644  -0.000969   0.000247
     3  C    0.068309  -0.001556   0.000509  -0.010878   0.000296   0.000001
     4  H    0.002266   0.000074  -0.000022   0.000296   0.000000   0.000000
     5  H    0.000009   0.000000   0.000000   0.000011   0.000000   0.000000
     6  H    0.002818  -0.000014   0.000038   0.000994   0.000005   0.000000
     7  C    0.896820   0.004729  -0.032648  -0.239652   0.002076   0.004372
     8  H   -0.013692   0.003952  -0.000742   0.008401  -0.000001  -0.000023
     9  H   -0.032407  -0.000463   0.002375   0.003649  -0.000029  -0.000009
    10  C   -1.653117  -0.108563   0.054012   0.260800  -0.034374   0.085084
    11  H   -0.078246   0.006499  -0.006741   0.022033  -0.000451  -0.000133
    12  H   -0.072656  -0.004527   0.004179  -0.010037   0.002556  -0.000198
    13  C    7.101927   0.452419   0.347080  -0.268069  -0.005708  -0.114148
    14  H    0.452419   0.449982  -0.042669  -0.021919  -0.006987  -0.003867
    15  H    0.347080  -0.042669   0.485247  -0.063536   0.006090  -0.003577
    16  C   -0.268069  -0.021919  -0.063536   6.239074   0.384138   0.375519
    17  H   -0.005708  -0.006987   0.006090   0.384138   0.430296  -0.023620
    18  H   -0.114148  -0.003867  -0.003577   0.375519  -0.023620   0.444038
    19  H    0.034590   0.006281  -0.008303   0.363143  -0.033806  -0.027214
    20  C   -0.008822  -0.000077   0.000083   0.000425   0.000030   0.000000
    21  H   -0.000085   0.000000   0.000000   0.000002   0.000000   0.000000
    22  H    0.000364   0.000000   0.000000  -0.000004   0.000000   0.000000
    23  H   -0.000167   0.000000   0.000000   0.000015   0.000000   0.000000
    24  N    0.030358  -0.001410  -0.000402  -0.017238  -0.001006   0.000129
    25  N   -0.007466   0.000483   0.000034   0.002604   0.000054  -0.000004
    26  Cl   0.063720   0.001203  -0.000756  -0.002124  -0.000346  -0.000049
             19         20         21         22         23         24
     1  C   -0.000241   0.155336   0.044226  -0.011392  -0.004849  -0.019121
     2  C    0.000328  -0.089437   0.049121   0.006736  -0.045555  -0.097307
     3  C   -0.000498  -0.275503  -0.054467   0.017098   0.008999   0.317500
     4  H    0.000000  -0.000306  -0.000423   0.002094   0.000380  -0.025928
     5  H    0.000000  -0.007802   0.000388   0.000196  -0.000119   0.016040
     6  H   -0.000011   0.002023   0.000042   0.000007  -0.000021  -0.074131
     7  C    0.003642  -0.112622  -0.004527   0.009963   0.002502   0.260963
     8  H    0.000036   0.005997   0.000007  -0.000064  -0.000017  -0.104483
     9  H    0.000047  -0.001542  -0.000004  -0.000015   0.000008  -0.058841
    10  C   -0.061931   0.044436   0.000659  -0.001115  -0.001434  -0.256805
    11  H    0.003487  -0.000648   0.000000   0.000000   0.000003  -0.019705
    12  H    0.000225   0.001134  -0.000001  -0.000005   0.000010   0.017885
    13  C    0.034590  -0.008822  -0.000085   0.000364  -0.000167   0.030358
    14  H    0.006281  -0.000077   0.000000   0.000000   0.000000  -0.001410
    15  H   -0.008303   0.000083   0.000000   0.000000   0.000000  -0.000402
    16  C    0.363143   0.000425   0.000002  -0.000004   0.000015  -0.017238
    17  H   -0.033806   0.000030   0.000000   0.000000   0.000000  -0.001006
    18  H   -0.027214   0.000000   0.000000   0.000000   0.000000   0.000129
    19  H    0.469477  -0.000002   0.000000   0.000000   0.000000   0.000477
    20  C   -0.000002   5.867763   0.419344   0.378186   0.380974  -0.119974
    21  H    0.000000   0.419344   0.467272  -0.022315  -0.022313  -0.020070
    22  H    0.000000   0.378186  -0.022315   0.439178  -0.022468   0.007111
    23  H    0.000000   0.380974  -0.022313  -0.022468   0.334942   0.013002
    24  N    0.000477  -0.119974  -0.020070   0.007111   0.013002   6.893429
    25  N    0.000011   0.095849  -0.092334  -0.062668  -0.010397  -0.207713
    26  Cl   0.000157   0.034319  -0.003290  -0.004812   0.012131   0.089610
             25         26
     1  C    0.203078   0.109326
     2  C   -0.140567  -0.684608
     3  C    0.211767   0.088289
     4  H   -0.018696  -0.016397
     5  H   -0.072754  -0.001516
     6  H    0.020090  -0.001893
     7  C   -0.157905   0.371293
     8  H    0.019780  -0.008209
     9  H   -0.013736  -0.003707
    10  C    0.058371  -0.301998
    11  H    0.002013   0.003416
    12  H    0.002349   0.001738
    13  C   -0.007466   0.063720
    14  H    0.000483   0.001203
    15  H    0.000034  -0.000756
    16  C    0.002604  -0.002124
    17  H    0.000054  -0.000346
    18  H   -0.000004  -0.000049
    19  H    0.000011   0.000157
    20  C    0.095849   0.034319
    21  H   -0.092334  -0.003290
    22  H   -0.062668  -0.004812
    23  H   -0.010397   0.012131
    24  N   -0.207713   0.089610
    25  N    6.762593   0.141669
    26  Cl   0.141669  17.813524
 Mulliken atomic charges:
              1
     1  C   -0.170576
     2  C   -0.331830
     3  C   -0.313540
     4  H    0.336494
     5  H    0.275229
     6  H    0.273998
     7  C   -0.870591
     8  H    0.286423
     9  H    0.277423
    10  C   -0.203504
    11  H    0.228244
    12  H    0.351339
    13  C   -0.458043
    14  H    0.273290
    15  H    0.247282
    16  C   -1.024076
    17  H    0.280752
    18  H    0.263242
    19  H    0.250103
    20  C   -0.769164
    21  H    0.238769
    22  H    0.263926
    23  H    0.354374
    24  N    0.377630
    25  N    0.263495
    26  Cl  -0.700692
 Sum of Mulliken atomic charges =   0.00000
 Mulliken charges with hydrogens summed into heavy atoms:
              1
     1  C    0.103422
     2  C    0.004664
     3  C   -0.038310
     7  C   -0.306744
    10  C    0.376080
    13  C    0.062529
    16  C   -0.229979
    20  C    0.087906
    24  N    0.377630
    25  N    0.263495
    26  Cl  -0.700692
 Sum of Mulliken charges with hydrogens summed into heavy atoms =   0.00000
 Electronic spatial extent (au):  <R**2>=           2692.8509
 Charge=              0.0000 electrons
 Dipole moment (field-independent basis, Debye):
    X=             -2.2475    Y=             -8.3487    Z=              1.4457  Tot=              8.7659
 Quadrupole moment (field-independent basis, Debye-Ang):
   XX=            -58.0406   YY=            -91.8736   ZZ=            -72.6467
   XY=              1.9381   XZ=              1.4123   YZ=              5.1954
 Traceless Quadrupole moment (field-independent basis, Debye-Ang):
   XX=             16.1464   YY=            -17.6866   ZZ=              1.5402
   XY=              1.9381   XZ=              1.4123   YZ=              5.1954
 Octapole moment (field-independent basis, Debye-Ang**2):
  XXX=            -63.8490  YYY=            -50.3804  ZZZ=              6.5896  XYY=              9.4727
  XXY=              2.8080  XXZ=             -3.7893  XZZ=            -10.5635  YZZ=             -7.2250
  YYZ=             -4.3667  XYZ=             -7.9921
 Hexadecapole moment (field-independent basis, Debye-Ang**3):
 XXXX=          -2412.3951 YYYY=           -897.4839 ZZZZ=           -288.4121 XXXY=             -4.5659
 XXXZ=             36.9436 YYYX=             10.8909 YYYZ=             16.3406 ZZZX=              1.8848
 ZZZY=             16.0500 XXYY=           -572.8744 XXZZ=           -468.9059 YYZZ=           -174.5023
 XXYZ=             22.4367 YYXZ=              8.1813 ZZXY=              4.8228
 N-N= 7.229689097612D+02 E-N=-3.522531722188D+03  KE= 8.808122345192D+02
 1\1\GINC-N0289\FOpt\RM062X\6-311+G(d)\C8H15Cl1N2\WAB665\08-Mar-2017\0\
 \# opt M062X/6-311+G* geom=connectivity\\Title Card Required\\0,1\C,-1
 .6422168831,1.0288637724,0.593699842\C,0.0895116682,2.3315192565,0.962
 9416237\C,-1.7873814131,2.1406798787,-0.1643476231\H,1.0129823717,2.72
 03221044,1.3520362527\H,-2.5523032086,2.422054782,-0.8674920819\H,-2.2
 609836925,0.1531886264,0.6851987203\C,0.2127107254,0.133848275,2.08148
 70201\H,1.1731919148,0.5587041704,2.3782302773\H,-0.3643899093,-0.0842
 916241,2.983871395\C,0.4386539638,-1.1102888535,1.230289472\H,-0.52243
 94308,-1.5869521368,1.0039133637\H,0.8901026019,-0.7928717803,0.285770
 108\C,1.3477052016,-2.106350891,1.9448759272\H,2.3124704794,-1.6267866
 44,2.1400999002\H,0.924631814,-2.3728150406,2.9209784235\C,1.56556748,
 -3.3669557206,1.1138085998\H,2.0128466984,-3.1183262227,0.1489925088\H
 ,2.2291890738,-4.0696620699,1.6211970656\H,0.6199671533,-3.8808032666,
 0.9209318336\C,-0.2870643876,4.104693926,-0.6906473667\H,-1.1657684019
 ,4.5922396298,-1.108397284\H,0.2514671586,4.8087253943,-0.0590306427\H
 ,0.3777705894,3.7305850246,-1.4717923484\N,-0.4779107076,1.1830856019,
 1.3234518938\N,-0.7169548127,2.9687175322,0.1148457733\Cl,1.9317367928
 ,1.4547681253,-0.8075713938\\Version=EM64L-G09RevA.02\State=1-A\HF=-88
 3.4866419\RMSD=2.809e-09\RMSF=9.728e-06\Dipole=-2.8517216,0.6770522,1.
 8175199\Quadrupole=-4.9441895,9.3144519,-4.3702624,-4.0123315,9.460384
 4,-2.5521992\PG=C01 [X(C8H15Cl1N2)]\\@


 CONTRAIWISE...CONTINUED TWEEDLEDEE, IF IT WAS SO, IT MIGHT BE,
 AND IF IT WERE SO, IT WOULD BE.....
 BUT AS IT ISN'T, IT AIN'T....
 THAT'S LOGIC.....
 ALICE THROUGH THE LOOKING GLASS
 Job cpu time:  0 days 12 hours 42 minutes 11.4 seconds.
 File lengths (MBytes):  RWF=    202 Int=      0 D2E=      0 Chk=      8 Scr=      4
 Normal termination of Gaussian 09 at Wed Mar  8 15:32:22 2017.
