 Entering Gaussian System, Link 0=g09
 Input=BAM_FOR_1.com
 Output=BAM_FOR_1.log
 Initial command:
 /gscratch/pfaendtner/codes/G09/g09/l1.exe /gscratch/pfaendtner/wesley/gaussian/Gau-24208.inp -scrdir=/gscratch/pfaendtner/wesley/gaussian/
 Entering Link 1 = /gscratch/pfaendtner/codes/G09/g09/l1.exe PID=     24209.
  
 Copyright (c) 1988,1990,1992,1993,1995,1998,2003,2009, Gaussian, Inc.
                  All Rights Reserved.
  
 This is part of the Gaussian(R) 09 program.  It is based on
 the Gaussian(R) 03 system (copyright 2003, Gaussian, Inc.),
 the Gaussian(R) 98 system (copyright 1998, Gaussian, Inc.),
 the Gaussian(R) 94 system (copyright 1995, Gaussian, Inc.),
 the Gaussian 92(TM) system (copyright 1992, Gaussian, Inc.),
 the Gaussian 90(TM) system (copyright 1990, Gaussian, Inc.),
 the Gaussian 88(TM) system (copyright 1988, Gaussian, Inc.),
 the Gaussian 86(TM) system (copyright 1986, Carnegie Mellon
 University), and the Gaussian 82(TM) system (copyright 1983,
 Carnegie Mellon University). Gaussian is a federally registered
 trademark of Gaussian, Inc.
  
 This software contains proprietary and confidential information,
 including trade secrets, belonging to Gaussian, Inc.
  
 This software is provided under written license and may be
 used, copied, transmitted, or stored only in accord with that
 written license.
  
 The following legend is applicable only to US Government
 contracts under FAR:
  
                    RESTRICTED RIGHTS LEGEND
  
 Use, reproduction and disclosure by the US Government is
 subject to restrictions as set forth in subparagraphs (a)
 and (c) of the Commercial Computer Software - Restricted
 Rights clause in FAR 52.227-19.
  
 Gaussian, Inc.
 340 Quinnipiac St., Bldg. 40, Wallingford CT 06492
  
  
 ---------------------------------------------------------------
 Warning -- This program may not be used in any manner that
 competes with the business of Gaussian, Inc. or will provide
 assistance to any competitor of Gaussian, Inc.  The licensee
 of this program is prohibited from giving any competitor of
 Gaussian, Inc. access to this program.  By using this program,
 the user acknowledges that Gaussian, Inc. is engaged in the
 business of creating and licensing software in the field of
 computational chemistry and represents and warrants to the
 licensee that it is not a competitor of Gaussian, Inc. and that
 it will not use this program in any manner prohibited above.
 ---------------------------------------------------------------
  

 Cite this work as:
 Gaussian 09, Revision A.02,
 M. J. Frisch, G. W. Trucks, H. B. Schlegel, G. E. Scuseria, 
 M. A. Robb, J. R. Cheeseman, G. Scalmani, V. Barone, B. Mennucci, 
 G. A. Petersson, H. Nakatsuji, M. Caricato, X. Li, H. P. Hratchian, 
 A. F. Izmaylov, J. Bloino, G. Zheng, J. L. Sonnenberg, M. Hada, 
 M. Ehara, K. Toyota, R. Fukuda, J. Hasegawa, M. Ishida, T. Nakajima, 
 Y. Honda, O. Kitao, H. Nakai, T. Vreven, J. A. Montgomery, Jr., 
 J. E. Peralta, F. Ogliaro, M. Bearpark, J. J. Heyd, E. Brothers, 
 K. N. Kudin, V. N. Staroverov, R. Kobayashi, J. Normand, 
 K. Raghavachari, A. Rendell, J. C. Burant, S. S. Iyengar, J. Tomasi, 
 M. Cossi, N. Rega, J. M. Millam, M. Klene, J. E. Knox, J. B. Cross, 
 V. Bakken, C. Adamo, J. Jaramillo, R. Gomperts, R. E. Stratmann, 
 O. Yazyev, A. J. Austin, R. Cammi, C. Pomelli, J. W. Ochterski, 
 R. L. Martin, K. Morokuma, V. G. Zakrzewski, G. A. Voth, 
 P. Salvador, J. J. Dannenberg, S. Dapprich, A. D. Daniels, 
 O. Farkas, J. B. Foresman, J. V. Ortiz, J. Cioslowski, 
 and D. J. Fox, Gaussian, Inc., Wallingford CT, 2009.
 
 ******************************************
 Gaussian 09:  EM64L-G09RevA.02 11-Jun-2009
                 8-Mar-2017 
 ******************************************
 %chk=BAM_FOR_1.chk
 %nprocshared=2
 Will use up to    2 processors via shared memory.
 --------------------------------------
 # opt M062X/6-311+G* geom=connectivity
 --------------------------------------
 1/14=-1,18=20,19=15,26=3,38=1,57=2/1,3;
 2/9=110,12=2,17=6,18=5,40=1/2;
 3/5=4,6=6,7=11,11=2,16=1,25=1,30=1,71=1,74=-55/1,2,3;
 4//1;
 5/5=2,38=5/2;
 6/7=2,8=2,9=2,10=2,28=1/1;
 7//1,2,3,16;
 1/14=-1,18=20,19=15/3(2);
 2/9=110/2;
 99//99;
 2/9=110/2;
 3/5=4,6=6,7=11,11=2,16=1,25=1,30=1,71=1,74=-55/1,2,3;
 4/5=5,16=3/1;
 5/5=2,38=5/2;
 7//1,2,3,16;
 1/14=-1,18=20,19=15/3(-5);
 2/9=110/2;
 6/7=2,8=2,9=2,10=2,19=2,28=1/1;
 99/9=1/99;
 -------------------
 Title Card Required
 -------------------
 Symbolic Z-matrix:
 Charge =  0 Multiplicity = 1
 C(PDBName=C1,ResName=BAM,ResNum=1) -2.11316  -0.83181   0.11398 
 H(PDBName=H1,ResName=BAM,ResNum=1) -1.85475  -1.84087   0.35879 
 H(PDBName=H2,ResName=BAM,ResNum=1) -1.67421  -0.56921  -0.82584 
 H(PDBName=H3,ResName=BAM,ResNum=1) -3.17735  -0.74212   0.04809 
 C(PDBName=C2,ResName=BAM,ResNum=1) -1.58517   0.11342   1.20913 
 H(PDBName=H4,ResName=BAM,ResNum=1) -1.84358   1.12248   0.96433 
 H(PDBName=H5,ResName=BAM,ResNum=1) -2.02411  -0.14918   2.14896 
 C(PDBName=C3,ResName=BAM,ResNum=1) -0.05352  -0.01567   1.30398 
 H(PDBName=H6,ResName=BAM,ResNum=1)  0.38542   0.24694   0.36416 
 H(PDBName=H7,ResName=BAM,ResNum=1)  0.20488  -1.02472   1.54878 
 C(PDBName=C4,ResName=BAM,ResNum=1)  0.47446   0.92957   2.39913 
 H(PDBName=H8,ResName=BAM,ResNum=1)  0.03552   0.66697   3.33895 
 H(PDBName=H9,ResName=BAM,ResNum=1)  0.21605   1.93863   2.15432 
 N(PDBName=N1,ResName=BAM,ResNum=1)  1.93649   0.80635   2.48966 
 H(PDBName=H10,ResName=BAM,ResNum=1)  2.27933   1.42014   3.2008 
 H(PDBName=H11,ResName=BAM,ResNum=1)  2.17799  -0.13669   2.71845 
 H(PDBName=H12,ResName=BAM,ResNum=1)  2.34671   1.05178   1.61132 
 C                     1.2107    3.79449   2.51758 
 H                     1.73744   4.5394    3.07664 
 O                     0.01112   3.98563   2.18888 
 O                     1.79079   2.72727   2.18879 
 

 GradGradGradGradGradGradGradGradGradGradGradGradGradGradGradGradGradGrad
 Berny optimization.
 Initialization pass.
                           ----------------------------
                           !    Initial Parameters    !
                           ! (Angstroms and Degrees)  !
 --------------------------                            --------------------------
 ! Name  Definition              Value          Derivative Info.                !
 --------------------------------------------------------------------------------
 ! R1    R(1,2)                  1.07           estimate D2E/DX2                !
 ! R2    R(1,3)                  1.07           estimate D2E/DX2                !
 ! R3    R(1,4)                  1.07           estimate D2E/DX2                !
 ! R4    R(1,5)                  1.54           estimate D2E/DX2                !
 ! R5    R(5,6)                  1.07           estimate D2E/DX2                !
 ! R6    R(5,7)                  1.07           estimate D2E/DX2                !
 ! R7    R(5,8)                  1.54           estimate D2E/DX2                !
 ! R8    R(8,9)                  1.07           estimate D2E/DX2                !
 ! R9    R(8,10)                 1.07           estimate D2E/DX2                !
 ! R10   R(8,11)                 1.54           estimate D2E/DX2                !
 ! R11   R(11,12)                1.07           estimate D2E/DX2                !
 ! R12   R(11,13)                1.07           estimate D2E/DX2                !
 ! R13   R(11,14)                1.47           estimate D2E/DX2                !
 ! R14   R(11,21)                2.238          estimate D2E/DX2                !
 ! R15   R(13,18)                2.1367         estimate D2E/DX2                !
 ! R16   R(13,20)                2.0575         estimate D2E/DX2                !
 ! R17   R(13,21)                1.7615         estimate D2E/DX2                !
 ! R18   R(14,15)                1.0            estimate D2E/DX2                !
 ! R19   R(14,16)                1.0            estimate D2E/DX2                !
 ! R20   R(14,17)                1.0            estimate D2E/DX2                !
 ! R21   R(14,21)                1.9498         estimate D2E/DX2                !
 ! R22   R(15,21)                1.7238         estimate D2E/DX2                !
 ! R23   R(17,21)                1.8574         estimate D2E/DX2                !
 ! R24   R(18,19)                1.07           estimate D2E/DX2                !
 ! R25   R(18,20)                1.2584         estimate D2E/DX2                !
 ! R26   R(18,21)                1.2584         estimate D2E/DX2                !
 ! A1    A(2,1,3)              109.4712         estimate D2E/DX2                !
 ! A2    A(2,1,4)              109.4712         estimate D2E/DX2                !
 ! A3    A(2,1,5)              109.4712         estimate D2E/DX2                !
 ! A4    A(3,1,4)              109.4712         estimate D2E/DX2                !
 ! A5    A(3,1,5)              109.4712         estimate D2E/DX2                !
 ! A6    A(4,1,5)              109.4712         estimate D2E/DX2                !
 ! A7    A(1,5,6)              109.4712         estimate D2E/DX2                !
 ! A8    A(1,5,7)              109.4712         estimate D2E/DX2                !
 ! A9    A(1,5,8)              109.4712         estimate D2E/DX2                !
 ! A10   A(6,5,7)              109.4712         estimate D2E/DX2                !
 ! A11   A(6,5,8)              109.4712         estimate D2E/DX2                !
 ! A12   A(7,5,8)              109.4712         estimate D2E/DX2                !
 ! A13   A(5,8,9)              109.4712         estimate D2E/DX2                !
 ! A14   A(5,8,10)             109.4712         estimate D2E/DX2                !
 ! A15   A(5,8,11)             109.4712         estimate D2E/DX2                !
 ! A16   A(9,8,10)             109.4712         estimate D2E/DX2                !
 ! A17   A(9,8,11)             109.4712         estimate D2E/DX2                !
 ! A18   A(10,8,11)            109.4712         estimate D2E/DX2                !
 ! A19   A(8,11,12)            109.4712         estimate D2E/DX2                !
 ! A20   A(8,11,13)            109.4712         estimate D2E/DX2                !
 ! A21   A(8,11,14)            109.4712         estimate D2E/DX2                !
 ! A22   A(8,11,21)            128.8916         estimate D2E/DX2                !
 ! A23   A(12,11,13)           109.4712         estimate D2E/DX2                !
 ! A24   A(12,11,14)           109.4712         estimate D2E/DX2                !
 ! A25   A(12,11,21)           121.3977         estimate D2E/DX2                !
 ! A26   A(13,11,14)           109.4712         estimate D2E/DX2                !
 ! A27   A(11,13,18)           131.8957         estimate D2E/DX2                !
 ! A28   A(11,13,20)           163.422          estimate D2E/DX2                !
 ! A29   A(20,13,21)            69.1023         estimate D2E/DX2                !
 ! A30   A(11,14,15)           109.4712         estimate D2E/DX2                !
 ! A31   A(11,14,16)           109.4712         estimate D2E/DX2                !
 ! A32   A(11,14,17)           109.4712         estimate D2E/DX2                !
 ! A33   A(15,14,16)           109.4712         estimate D2E/DX2                !
 ! A34   A(15,14,17)           109.4712         estimate D2E/DX2                !
 ! A35   A(16,14,17)           109.4712         estimate D2E/DX2                !
 ! A36   A(16,14,21)           169.2439         estimate D2E/DX2                !
 ! A37   A(13,18,19)           157.319          estimate D2E/DX2                !
 ! A38   A(19,18,20)           120.0            estimate D2E/DX2                !
 ! A39   A(19,18,21)           120.0            estimate D2E/DX2                !
 ! A40   A(20,18,21)           120.0            estimate D2E/DX2                !
 ! A41   A(11,21,15)            60.1597         estimate D2E/DX2                !
 ! A42   A(11,21,17)            58.7121         estimate D2E/DX2                !
 ! A43   A(11,21,18)           112.6768         estimate D2E/DX2                !
 ! A44   A(13,21,14)            68.207          estimate D2E/DX2                !
 ! A45   A(13,21,15)            85.7195         estimate D2E/DX2                !
 ! A46   A(13,21,17)            81.8145         estimate D2E/DX2                !
 ! A47   A(14,21,18)           146.0625         estimate D2E/DX2                !
 ! A48   A(15,21,17)            54.1024         estimate D2E/DX2                !
 ! A49   A(15,21,18)           128.3413         estimate D2E/DX2                !
 ! A50   A(17,21,18)           169.8148         estimate D2E/DX2                !
 ! D1    D(2,1,5,6)            180.0            estimate D2E/DX2                !
 ! D2    D(2,1,5,7)            -60.0            estimate D2E/DX2                !
 ! D3    D(2,1,5,8)             60.0            estimate D2E/DX2                !
 ! D4    D(3,1,5,6)             60.0            estimate D2E/DX2                !
 ! D5    D(3,1,5,7)            180.0            estimate D2E/DX2                !
 ! D6    D(3,1,5,8)            -60.0            estimate D2E/DX2                !
 ! D7    D(4,1,5,6)            -60.0            estimate D2E/DX2                !
 ! D8    D(4,1,5,7)             60.0            estimate D2E/DX2                !
 ! D9    D(4,1,5,8)           -180.0            estimate D2E/DX2                !
 ! D10   D(1,5,8,9)             60.0            estimate D2E/DX2                !
 ! D11   D(1,5,8,10)           -60.0            estimate D2E/DX2                !
 ! D12   D(1,5,8,11)           180.0            estimate D2E/DX2                !
 ! D13   D(6,5,8,9)            -60.0            estimate D2E/DX2                !
 ! D14   D(6,5,8,10)           180.0            estimate D2E/DX2                !
 ! D15   D(6,5,8,11)            60.0            estimate D2E/DX2                !
 ! D16   D(7,5,8,9)            180.0            estimate D2E/DX2                !
 ! D17   D(7,5,8,10)            60.0            estimate D2E/DX2                !
 ! D18   D(7,5,8,11)           -60.0            estimate D2E/DX2                !
 ! D19   D(5,8,11,12)           60.0            estimate D2E/DX2                !
 ! D20   D(5,8,11,13)          -60.0            estimate D2E/DX2                !
 ! D21   D(5,8,11,14)          180.0            estimate D2E/DX2                !
 ! D22   D(5,8,11,21)         -114.3513         estimate D2E/DX2                !
 ! D23   D(9,8,11,12)         -180.0            estimate D2E/DX2                !
 ! D24   D(9,8,11,13)           60.0            estimate D2E/DX2                !
 ! D25   D(9,8,11,14)          -60.0            estimate D2E/DX2                !
 ! D26   D(9,8,11,21)            5.6487         estimate D2E/DX2                !
 ! D27   D(10,8,11,12)         -60.0            estimate D2E/DX2                !
 ! D28   D(10,8,11,13)         180.0            estimate D2E/DX2                !
 ! D29   D(10,8,11,14)          60.0            estimate D2E/DX2                !
 ! D30   D(10,8,11,21)         125.6487         estimate D2E/DX2                !
 ! D31   D(8,11,13,18)        -147.3691         estimate D2E/DX2                !
 ! D32   D(8,11,13,20)        -179.1227         estimate D2E/DX2                !
 ! D33   D(12,11,13,18)         92.6309         estimate D2E/DX2                !
 ! D34   D(12,11,13,20)         60.8773         estimate D2E/DX2                !
 ! D35   D(14,11,13,18)        -27.3691         estimate D2E/DX2                !
 ! D36   D(14,11,13,20)        -59.1227         estimate D2E/DX2                !
 ! D37   D(8,11,14,15)         180.0            estimate D2E/DX2                !
 ! D38   D(8,11,14,16)         -60.0            estimate D2E/DX2                !
 ! D39   D(8,11,14,17)          60.0            estimate D2E/DX2                !
 ! D40   D(12,11,14,15)        -60.0            estimate D2E/DX2                !
 ! D41   D(12,11,14,16)         60.0            estimate D2E/DX2                !
 ! D42   D(12,11,14,17)        180.0            estimate D2E/DX2                !
 ! D43   D(13,11,14,15)         60.0            estimate D2E/DX2                !
 ! D44   D(13,11,14,16)        180.0            estimate D2E/DX2                !
 ! D45   D(13,11,14,17)        -60.0            estimate D2E/DX2                !
 ! D46   D(8,11,21,15)        -122.3883         estimate D2E/DX2                !
 ! D47   D(8,11,21,17)         -58.6443         estimate D2E/DX2                !
 ! D48   D(8,11,21,18)         115.2409         estimate D2E/DX2                !
 ! D49   D(12,11,21,15)         63.8532         estimate D2E/DX2                !
 ! D50   D(12,11,21,17)        127.5972         estimate D2E/DX2                !
 ! D51   D(12,11,21,18)        -58.5176         estimate D2E/DX2                !
 ! D52   D(11,13,18,19)        -46.3758         estimate D2E/DX2                !
 ! D53   D(20,13,21,14)        169.3748         estimate D2E/DX2                !
 ! D54   D(20,13,21,15)        143.219          estimate D2E/DX2                !
 ! D55   D(20,13,21,17)       -162.4614         estimate D2E/DX2                !
 ! D56   D(16,14,21,13)       -160.0579         estimate D2E/DX2                !
 ! D57   D(16,14,21,18)       -110.3613         estimate D2E/DX2                !
 ! D58   D(19,18,21,11)        139.4191         estimate D2E/DX2                !
 ! D59   D(19,18,21,14)        108.5288         estimate D2E/DX2                !
 ! D60   D(19,18,21,15)         70.3404         estimate D2E/DX2                !
 ! D61   D(19,18,21,17)        170.4016         estimate D2E/DX2                !
 ! D62   D(20,18,21,11)        -40.5809         estimate D2E/DX2                !
 ! D63   D(20,18,21,14)        -71.4712         estimate D2E/DX2                !
 ! D64   D(20,18,21,15)       -109.6596         estimate D2E/DX2                !
 ! D65   D(20,18,21,17)         -9.5983         estimate D2E/DX2                !
 --------------------------------------------------------------------------------
 Trust Radius=3.00D-01 FncErr=1.00D-07 GrdErr=1.00D-06
 Number of steps in this run= 126 maximum allowed number of steps= 126.
 GradGradGradGradGradGradGradGradGradGradGradGradGradGradGradGradGradGrad

                          Input orientation:                          
 ---------------------------------------------------------------------
 Center     Atomic      Atomic             Coordinates (Angstroms)
 Number     Number       Type             X           Y           Z
 ---------------------------------------------------------------------
      1          6           0       -2.113156   -0.831815    0.113984
      2          1           0       -1.854749   -1.840872    0.358789
      3          1           0       -1.674214   -0.569208   -0.825839
      4          1           0       -3.177351   -0.742121    0.048085
      5          6           0       -1.585171    0.113425    1.209134
      6          1           0       -1.843577    1.122482    0.964329
      7          1           0       -2.024113   -0.149182    2.148957
      8          6           0       -0.053524   -0.015667    1.303979
      9          1           0        0.385418    0.246940    0.364156
     10          1           0        0.204882   -1.024724    1.548784
     11          6           0        0.474461    0.929573    2.399129
     12          1           0        0.035519    0.666966    3.338952
     13          1           0        0.216054    1.938630    2.154324
     14          7           0        1.936487    0.806349    2.489663
     15          1           0        2.279334    1.420141    3.200799
     16          1           0        2.177988   -0.136695    2.718453
     17          1           0        2.346713    1.051776    1.611323
     18          6           0        1.210698    3.794486    2.517581
     19          1           0        1.737438    4.539405    3.076635
     20          8           0        0.011118    3.985626    2.188882
     21          8           0        1.790793    2.727267    2.188791
 ---------------------------------------------------------------------
                    Distance matrix (angstroms):
                    1          2          3          4          5
     1  C    0.000000
     2  H    1.070000   0.000000
     3  H    1.070000   1.747303   0.000000
     4  H    1.070000   1.747303   1.747303   0.000000
     5  C    1.540000   2.148263   2.148263   2.148263   0.000000
     6  H    2.148263   3.024610   2.468846   2.468846   1.070000
     7  H    2.148263   2.468846   3.024610   2.468846   1.070000
     8  C    2.514809   2.732978   2.732978   3.444314   1.540000
     9  H    2.732978   3.062243   2.514809   3.710993   2.148263
    10  H    2.732978   2.514809   3.062243   3.710993   2.148263
    11  C    3.875582   4.154945   4.154945   4.653783   2.514809
    12  H    4.154945   4.329403   4.668704   4.810184   2.732978
    13  H    4.154945   4.668704   4.329403   4.810184   2.732978
    14  N    4.972628   5.091352   5.091352   5.874555   3.810770
    15  H    5.821830   5.983466   5.983466   6.662612   4.539673
    16  H    5.067580   4.973450   5.252479   6.014737   4.062261
    17  H    5.067580   5.252479   4.973450   6.014737   4.062261
    18  C    6.182875   6.768649   6.208301   6.777477   4.804074
    19  H    7.242539   7.810148   7.277815   7.824435   5.840940
    20  O    5.659105   6.385826   5.716239   6.091054   4.301393
    21  O    5.675623   6.124277   5.653407   6.426642   4.380528
                    6          7          8          9         10
     6  H    0.000000
     7  H    1.747303   0.000000
     8  C    2.148263   2.148263   0.000000
     9  H    2.468846   3.024610   1.070000   0.000000
    10  H    3.024610   2.468846   1.070000   1.747303   0.000000
    11  C    2.732978   2.732978   1.540000   2.148263   2.148263
    12  H    3.062243   2.514809   2.148263   3.024610   2.468846
    13  H    2.514809   3.062243   2.148263   2.468846   3.024610
    14  N    4.088455   4.088455   2.457987   2.690081   2.690081
    15  H    4.699872   4.699872   3.331921   3.606919   3.606919
    16  H    4.564588   4.240535   2.644813   2.983823   2.459648
    17  H    4.240535   4.564588   2.644813   2.459648   2.983823
    18  C    4.345204   5.113942   4.193847   4.231242   5.017471
    19  H    5.381530   6.082162   5.205625   5.254594   5.970141
    20  O    3.624502   4.608730   4.098484   4.177020   5.054787
    21  O    4.157318   4.777975   3.421707   3.384729   4.123367
                   11         12         13         14         15
    11  C    0.000000
    12  H    1.070000   0.000000
    13  H    1.070000   1.747303   0.000000
    14  N    1.470000   2.086720   2.086720   0.000000
    15  H    2.034920   2.370879   2.370879   1.000000   0.000000
    16  H    2.034920   2.370879   2.911082   1.000000   1.632993
    17  H    2.034920   2.911082   2.370879   1.000000   1.632993
    18  C    2.960372   3.440506   2.136697   3.075144   2.691892
    19  H    3.883943   4.238056   3.151079   3.784159   3.168418
    20  O    3.098120   3.512372   2.057519   3.728983   3.570783
    21  O    2.238007   2.940867   1.761516   1.949788   1.723778
                   16         17         18         19         20
    16  H    0.000000
    17  H    1.632993   0.000000
    18  C    4.053416   3.103915   0.000000
    19  H    4.710444   3.831698   1.070000   0.000000
    20  O    4.687142   3.794213   1.258400   2.018653   0.000000
    21  O    2.938152   1.857359   1.258400   2.018653   2.179613
                   21
    21  O    0.000000
 Stoichiometry    C5H13NO2
 Framework group  C1[X(C5H13NO2)]
 Deg. of freedom    57
 Full point group                 C1      NOp   1
 Largest Abelian subgroup         C1      NOp   1
 Largest concise Abelian subgroup C1      NOp   1
                         Standard orientation:                         
 ---------------------------------------------------------------------
 Center     Atomic      Atomic             Coordinates (Angstroms)
 Number     Number       Type             X           Y           Z
 ---------------------------------------------------------------------
      1          6           0        3.554006   -0.577791   -0.315613
      2          1           0        4.061704    0.326560   -0.052380
      3          1           0        3.445605   -0.629450   -1.378854
      4          1           0        4.121594   -1.417943    0.026274
      5          6           0        2.162413   -0.595837    0.343738
      6          1           0        1.654715   -1.500188    0.080505
      7          1           0        2.270814   -0.544178    1.406979
      8          6           0        1.345510    0.613355   -0.148323
      9          1           0        1.237109    0.561696   -1.211564
     10          1           0        1.853209    1.517706    0.114910
     11          6           0       -0.046083    0.595309    0.511028
     12          1           0        0.062318    0.646968    1.574268
     13          1           0       -0.553781   -0.309042    0.247795
     14          7           0       -0.825853    1.749538    0.041333
     15          1           0       -1.729485    1.737819    0.469483
     16          1           0       -0.351369    2.594725    0.287345
     17          1           0       -0.927163    1.701258   -0.952350
     18          6           0       -2.621668   -0.744371   -0.068131
     19          1           0       -3.672852   -0.741708    0.131631
     20          8           0       -1.957059   -1.803585    0.073048
     21          8           0       -2.050005    0.311712   -0.444244
 ---------------------------------------------------------------------
 Rotational constants (GHZ):      3.1612779      0.9286766      0.7576616
 Standard basis: 6-311+G(d) (5D, 7F)
 There are   215 symmetry adapted basis functions of A   symmetry.
 Integral buffers will be    131072 words long.
 Raffenetti 2 integral format.
 Two-electron integral symmetry is turned on.
   215 basis functions,   353 primitive gaussians,   223 cartesian basis functions
    33 alpha electrons       33 beta electrons
       nuclear repulsion energy       405.2421987334 Hartrees.
 NAtoms=   21 NActive=   21 NUniq=   21 SFac= 7.50D-01 NAtFMM=   80 NAOKFM=F Big=F
 One-electron integrals computed using PRISM.
 NBasis=   215 RedAO= T  NBF=   215
 NBsUse=   215 1.00D-06 NBFU=   215
 Harris functional with IExCor= 1009 diagonalized for initial guess.
 ExpMin= 4.38D-02 ExpMax= 8.59D+03 ExpMxC= 1.30D+03 IAcc=2 IRadAn=         0 AccDes= 0.00D+00
 HarFok:  IExCor= 1009 AccDes= 0.00D+00 IRadAn=         0 IDoV= 1
 ScaDFX=  1.000000  1.000000  1.000000  1.000000
 FoFCou: FMM=F IPFlag=           0 FMFlag=      100000 FMFlg1=           0
         NFxFlg=           0 DoJE=T BraDBF=F KetDBF=T FulRan=T
         Omega=  0.000000  0.000000  1.000000  0.000000  0.000000 ICntrl=     500 IOpCl=  0
         NMat0=    1 NMatS0=    1 NMatT0=    0 NMatD0=    1 NMtDS0=    0 NMtDT0=    0
         I1Cent=           4 NGrid=           0.
 Petite list used in FoFCou.
 Initial guess orbital symmetries:
       Occupied  (A) (A) (A) (A) (A) (A) (A) (A) (A) (A) (A) (A)
                 (A) (A) (A) (A) (A) (A) (A) (A) (A) (A) (A) (A)
                 (A) (A) (A) (A) (A) (A) (A) (A) (A)
       Virtual   (A) (A) (A) (A) (A) (A) (A) (A) (A) (A) (A) (A)
                 (A) (A) (A) (A) (A) (A) (A) (A) (A) (A) (A) (A)
                 (A) (A) (A) (A) (A) (A) (A) (A) (A) (A) (A) (A)
                 (A) (A) (A) (A) (A) (A) (A) (A) (A) (A) (A) (A)
                 (A) (A) (A) (A) (A) (A) (A) (A) (A) (A) (A) (A)
                 (A) (A) (A) (A) (A) (A) (A) (A) (A) (A) (A) (A)
                 (A) (A) (A) (A) (A) (A) (A) (A) (A) (A) (A) (A)
                 (A) (A) (A) (A) (A) (A) (A) (A) (A) (A) (A) (A)
                 (A) (A) (A) (A) (A) (A) (A) (A) (A) (A) (A) (A)
                 (A) (A) (A) (A) (A) (A) (A) (A) (A) (A) (A) (A)
                 (A) (A) (A) (A) (A) (A) (A) (A) (A) (A) (A) (A)
                 (A) (A) (A) (A) (A) (A) (A) (A) (A) (A) (A) (A)
                 (A) (A) (A) (A) (A) (A) (A) (A) (A) (A) (A) (A)
                 (A) (A) (A) (A) (A) (A) (A) (A) (A) (A) (A) (A)
                 (A) (A) (A) (A) (A) (A) (A) (A) (A) (A) (A) (A)
                 (A) (A)
 The electronic state of the initial guess is 1-A.
 Requested convergence on RMS density matrix=1.00D-08 within 128 cycles.
 Requested convergence on MAX density matrix=1.00D-06.
 Requested convergence on             energy=1.00D-06.
 No special actions if energy rises.
 SCF Done:  E(RM062X) =  -403.391746240     A.U. after   14 cycles
             Convg  =    0.5476D-08             -V/T =  2.0012

 **********************************************************************

            Population analysis using the SCF density.

 **********************************************************************

 Orbital symmetries:
       Occupied  (A) (A) (A) (A) (A) (A) (A) (A) (A) (A) (A) (A)
                 (A) (A) (A) (A) (A) (A) (A) (A) (A) (A) (A) (A)
                 (A) (A) (A) (A) (A) (A) (A) (A) (A)
       Virtual   (A) (A) (A) (A) (A) (A) (A) (A) (A) (A) (A) (A)
                 (A) (A) (A) (A) (A) (A) (A) (A) (A) (A) (A) (A)
                 (A) (A) (A) (A) (A) (A) (A) (A) (A) (A) (A) (A)
                 (A) (A) (A) (A) (A) (A) (A) (A) (A) (A) (A) (A)
                 (A) (A) (A) (A) (A) (A) (A) (A) (A) (A) (A) (A)
                 (A) (A) (A) (A) (A) (A) (A) (A) (A) (A) (A) (A)
                 (A) (A) (A) (A) (A) (A) (A) (A) (A) (A) (A) (A)
                 (A) (A) (A) (A) (A) (A) (A) (A) (A) (A) (A) (A)
                 (A) (A) (A) (A) (A) (A) (A) (A) (A) (A) (A) (A)
                 (A) (A) (A) (A) (A) (A) (A) (A) (A) (A) (A) (A)
                 (A) (A) (A) (A) (A) (A) (A) (A) (A) (A) (A) (A)
                 (A) (A) (A) (A) (A) (A) (A) (A) (A) (A) (A) (A)
                 (A) (A) (A) (A) (A) (A) (A) (A) (A) (A) (A) (A)
                 (A) (A) (A) (A) (A) (A) (A) (A) (A) (A) (A) (A)
                 (A) (A) (A) (A) (A) (A) (A) (A) (A) (A) (A) (A)
                 (A) (A)
 The electronic state is 1-A.
 Alpha  occ. eigenvalues --  -19.53265 -19.52981 -14.86008 -10.59174 -10.57532
 Alpha  occ. eigenvalues --  -10.54969 -10.53711 -10.52351  -1.16151  -1.11486
 Alpha  occ. eigenvalues --   -1.02062  -0.91530  -0.83815  -0.75127  -0.71453
 Alpha  occ. eigenvalues --   -0.69920  -0.66479  -0.61077  -0.57362  -0.56829
 Alpha  occ. eigenvalues --   -0.51553  -0.50508  -0.48711  -0.46300  -0.45347
 Alpha  occ. eigenvalues --   -0.45109  -0.42572  -0.41475  -0.41098  -0.40085
 Alpha  occ. eigenvalues --   -0.29706  -0.29040  -0.27933
 Alpha virt. eigenvalues --   -0.01961   0.01605   0.01658   0.02976   0.04231
 Alpha virt. eigenvalues --    0.04820   0.05408   0.06350   0.06677   0.07425
 Alpha virt. eigenvalues --    0.07807   0.08838   0.09288   0.09606   0.10695
 Alpha virt. eigenvalues --    0.11684   0.12347   0.12975   0.13350   0.15004
 Alpha virt. eigenvalues --    0.15721   0.16920   0.17418   0.18518   0.19994
 Alpha virt. eigenvalues --    0.20522   0.20830   0.21594   0.22243   0.22972
 Alpha virt. eigenvalues --    0.24235   0.24928   0.25207   0.25331   0.26229
 Alpha virt. eigenvalues --    0.27038   0.27744   0.28599   0.29530   0.29990
 Alpha virt. eigenvalues --    0.30495   0.31427   0.32715   0.34121   0.34531
 Alpha virt. eigenvalues --    0.35532   0.36372   0.39384   0.39721   0.41857
 Alpha virt. eigenvalues --    0.42836   0.43804   0.45036   0.46765   0.50221
 Alpha virt. eigenvalues --    0.51176   0.51792   0.53647   0.55610   0.57198
 Alpha virt. eigenvalues --    0.59347   0.59740   0.63771   0.65537   0.67153
 Alpha virt. eigenvalues --    0.67658   0.68505   0.69763   0.70396   0.71775
 Alpha virt. eigenvalues --    0.73693   0.73929   0.74838   0.75505   0.78186
 Alpha virt. eigenvalues --    0.79513   0.80309   0.81310   0.82104   0.83635
 Alpha virt. eigenvalues --    0.86208   0.87447   0.94390   0.99518   1.03091
 Alpha virt. eigenvalues --    1.03459   1.05495   1.08400   1.10397   1.17795
 Alpha virt. eigenvalues --    1.20273   1.22538   1.23275   1.26180   1.31223
 Alpha virt. eigenvalues --    1.34164   1.35996   1.37185   1.44955   1.47793
 Alpha virt. eigenvalues --    1.53084   1.54270   1.56207   1.57091   1.60126
 Alpha virt. eigenvalues --    1.62067   1.62981   1.64612   1.67036   1.69187
 Alpha virt. eigenvalues --    1.69680   1.72427   1.79183   1.82316   1.83278
 Alpha virt. eigenvalues --    1.87367   1.89338   1.94574   1.97837   2.03495
 Alpha virt. eigenvalues --    2.04861   2.06337   2.10895   2.15348   2.17343
 Alpha virt. eigenvalues --    2.28972   2.36740   2.48187   2.54365   2.55953
 Alpha virt. eigenvalues --    2.57035   2.59974   2.60479   2.62530   2.65557
 Alpha virt. eigenvalues --    2.66548   2.72128   2.73151   2.79600   2.87184
 Alpha virt. eigenvalues --    2.90951   2.97638   2.99852   3.01920   3.05016
 Alpha virt. eigenvalues --    3.06858   3.09762   3.11463   3.18586   3.21134
 Alpha virt. eigenvalues --    3.24950   3.30971   3.32189   3.34589   3.36948
 Alpha virt. eigenvalues --    3.38847   3.41681   3.46349   3.49949   3.71107
 Alpha virt. eigenvalues --    3.77175   3.87474   3.94074   4.06816   4.12762
 Alpha virt. eigenvalues --    4.19405   4.26310   4.56753   5.20842   5.23995
 Alpha virt. eigenvalues --    5.32845   5.36542   5.70071   6.01054  23.55980
 Alpha virt. eigenvalues --   23.70612  23.76339  23.79314  23.93855  35.46935
 Alpha virt. eigenvalues --   50.08535  50.15272
          Condensed to atoms (all electrons):
              1          2          3          4          5          6
     1  C    6.203616   0.352084   0.382193   0.395673  -0.401707  -0.059457
     2  H    0.352084   0.469858  -0.037521  -0.025351   0.039589   0.005880
     3  H    0.382193  -0.037521   0.453719  -0.022803  -0.005627  -0.007082
     4  H    0.395673  -0.025351  -0.022803   0.429271  -0.098475  -0.003674
     5  C   -0.401707   0.039589  -0.005627  -0.098475   6.534401   0.459724
     6  H   -0.059457   0.005880  -0.007082  -0.003674   0.459724   0.399622
     7  H   -0.029002  -0.008683   0.006583  -0.003467   0.384761  -0.029144
     8  C    0.491660  -0.063224  -0.027846   0.055701  -1.064176  -0.087392
     9  H    0.015863  -0.000009   0.002899  -0.000204  -0.068869  -0.004647
    10  H   -0.021951   0.003384   0.000056  -0.000228  -0.022885   0.005215
    11  C   -0.373806   0.013903  -0.005107   0.003027   0.628496   0.019547
    12  H    0.015968   0.000023  -0.000039  -0.000035  -0.050808  -0.000104
    13  H   -0.004057  -0.000027   0.000101  -0.000036  -0.019384   0.003850
    14  N   -0.000384  -0.000221  -0.000478   0.000267  -0.028288   0.000866
    15  H   -0.001127  -0.000001   0.000003   0.000000   0.005516   0.000003
    16  H    0.001821   0.000008   0.000007  -0.000003   0.003726   0.000020
    17  H   -0.000423  -0.000004   0.000028  -0.000004   0.002801  -0.000135
    18  C   -0.006671  -0.000016   0.000114  -0.000008  -0.000112   0.000458
    19  H   -0.000015   0.000000   0.000000   0.000000  -0.000035  -0.000022
    20  O   -0.000616  -0.000005   0.000012   0.000002   0.006529  -0.001115
    21  O    0.013973  -0.000026   0.000028  -0.000005   0.000613  -0.001305
              7          8          9         10         11         12
     1  C   -0.029002   0.491660   0.015863  -0.021951  -0.373806   0.015968
     2  H   -0.008683  -0.063224  -0.000009   0.003384   0.013903   0.000023
     3  H    0.006583  -0.027846   0.002899   0.000056  -0.005107  -0.000039
     4  H   -0.003467   0.055701  -0.000204  -0.000228   0.003027  -0.000035
     5  C    0.384761  -1.064176  -0.068869  -0.022885   0.628496  -0.050808
     6  H   -0.029144  -0.087392  -0.004647   0.005215   0.019547  -0.000104
     7  H    0.458287   0.020775   0.005280  -0.006665  -0.059634   0.003472
     8  C    0.020775   7.855949   0.516739   0.330680  -1.457410   0.137127
     9  H    0.005280   0.516739   0.436388  -0.045885  -0.131799   0.005697
    10  H   -0.006665   0.330680  -0.045885   0.488145   0.046823  -0.012307
    11  C   -0.059634  -1.457410  -0.131799   0.046823   7.619973   0.220383
    12  H    0.003472   0.137127   0.005697  -0.012307   0.220383   0.438784
    13  H   -0.001037  -0.066607  -0.010848   0.007732   0.400376  -0.026307
    14  N    0.000669  -0.165765   0.006258  -0.009174  -0.053389  -0.001310
    15  H   -0.000020  -0.018810  -0.000641   0.000709   0.032969  -0.006893
    16  H   -0.000012   0.009673  -0.001565   0.005889   0.001093  -0.008114
    17  H    0.000078  -0.005878   0.005544  -0.002774   0.001684   0.002179
    18  C   -0.000049  -0.052114  -0.001244   0.000096   0.005958  -0.004107
    19  H   -0.000001   0.005178   0.000013  -0.000013  -0.022872   0.000432
    20  O    0.000194  -0.022694   0.000175  -0.000333  -0.032147  -0.000549
    21  O    0.000591   0.174819   0.006034  -0.003706  -0.322364   0.020712
             13         14         15         16         17         18
     1  C   -0.004057  -0.000384  -0.001127   0.001821  -0.000423  -0.006671
     2  H   -0.000027  -0.000221  -0.000001   0.000008  -0.000004  -0.000016
     3  H    0.000101  -0.000478   0.000003   0.000007   0.000028   0.000114
     4  H   -0.000036   0.000267   0.000000  -0.000003  -0.000004  -0.000008
     5  C   -0.019384  -0.028288   0.005516   0.003726   0.002801  -0.000112
     6  H    0.003850   0.000866   0.000003   0.000020  -0.000135   0.000458
     7  H   -0.001037   0.000669  -0.000020  -0.000012   0.000078  -0.000049
     8  C   -0.066607  -0.165765  -0.018810   0.009673  -0.005878  -0.052114
     9  H   -0.010848   0.006258  -0.000641  -0.001565   0.005544  -0.001244
    10  H    0.007732  -0.009174   0.000709   0.005889  -0.002774   0.000096
    11  C    0.400376  -0.053389   0.032969   0.001093   0.001684   0.005958
    12  H   -0.026307  -0.001310  -0.006893  -0.008114   0.002179  -0.004107
    13  H    0.342661  -0.021828   0.001654   0.002500  -0.005145   0.036643
    14  N   -0.021828   7.535333   0.276130   0.209670   0.350742   0.000159
    15  H    0.001654   0.276130   0.264535  -0.015933  -0.005442   0.007751
    16  H    0.002500   0.209670  -0.015933   0.376376  -0.031563  -0.002490
    17  H   -0.005145   0.350742  -0.005442  -0.031563   0.242582   0.000068
    18  C    0.036643   0.000159   0.007751  -0.002490   0.000068   5.090459
    19  H    0.006972  -0.001946  -0.000924   0.000072  -0.000246   0.485863
    20  O    0.074833   0.005354   0.000684  -0.000181  -0.000096   0.461675
    21  O   -0.124131  -0.338914  -0.040826   0.049059  -0.057963   0.010862
             19         20         21
     1  C   -0.000015  -0.000616   0.013973
     2  H    0.000000  -0.000005  -0.000026
     3  H    0.000000   0.000012   0.000028
     4  H    0.000000   0.000002  -0.000005
     5  C   -0.000035   0.006529   0.000613
     6  H   -0.000022  -0.001115  -0.001305
     7  H   -0.000001   0.000194   0.000591
     8  C    0.005178  -0.022694   0.174819
     9  H    0.000013   0.000175   0.006034
    10  H   -0.000013  -0.000333  -0.003706
    11  C   -0.022872  -0.032147  -0.322364
    12  H    0.000432  -0.000549   0.020712
    13  H    0.006972   0.074833  -0.124131
    14  N   -0.001946   0.005354  -0.338914
    15  H   -0.000924   0.000684  -0.040826
    16  H    0.000072  -0.000181   0.049059
    17  H   -0.000246  -0.000096  -0.057963
    18  C    0.485863   0.461675   0.010862
    19  H    0.602119  -0.077481  -0.161352
    20  O   -0.077481   8.195140  -0.171309
    21  O   -0.161352  -0.171309   9.404698
 Mulliken atomic charges:
              1
     1  C   -0.973635
     2  H    0.250359
     3  H    0.260760
     4  H    0.270353
     5  C   -0.305791
     6  H    0.298894
     7  H    0.257024
     8  C   -0.566386
     9  H    0.264821
    10  H    0.237191
    11  C   -0.535704
    12  H    0.265795
    13  H    0.402086
    14  N   -0.763750
    15  H    0.500663
    16  H    0.399949
    17  H    0.503965
    18  C   -0.033293
    19  H    0.164259
    20  O   -0.438071
    21  O   -0.459490
 Sum of Mulliken atomic charges =   0.00000
 Mulliken charges with hydrogens summed into heavy atoms:
              1
     1  C   -0.192162
     5  C    0.250127
     8  C   -0.064374
    11  C    0.132177
    14  N    0.640827
    18  C    0.130967
    20  O   -0.438071
    21  O   -0.459490
 Sum of Mulliken charges with hydrogens summed into heavy atoms =   0.00000
 Electronic spatial extent (au):  <R**2>=           1531.4353
 Charge=              0.0000 electrons
 Dipole moment (field-independent basis, Debye):
    X=              3.2896    Y=              7.7073    Z=              1.1188  Tot=              8.4543
 Quadrupole moment (field-independent basis, Debye-Ang):
   XX=            -56.5090   YY=            -49.8577   ZZ=            -50.2148
   XY=             -9.9304   XZ=             -2.0100   YZ=              1.6459
 Traceless Quadrupole moment (field-independent basis, Debye-Ang):
   XX=             -4.3152   YY=              2.3361   ZZ=              1.9790
   XY=             -9.9304   XZ=             -2.0100   YZ=              1.6459
 Octapole moment (field-independent basis, Debye-Ang**2):
  XXX=            -13.6791  YYY=             48.9014  ZZZ=             -0.8070  XYY=              6.3483
  XXY=             10.6028  XXZ=              8.1735  XZZ=             -3.5257  YZZ=              5.0197
  YYZ=             -0.3392  XYZ=             -3.7017
 Hexadecapole moment (field-independent basis, Debye-Ang**3):
 XXXX=          -1511.5901 YYYY=           -391.5743 ZZZZ=           -109.1090 XXXY=            -13.5352
 XXXZ=             -0.9252 YYYX=            -62.7642 YYYZ=              7.0619 ZZZX=              0.7700
 ZZZY=             -0.5020 XXYY=           -339.0523 XXZZ=           -274.7707 YYZZ=            -84.6426
 XXYZ=             10.5381 YYXZ=              4.1611 ZZXY=             -4.6840
 N-N= 4.052421987334D+02 E-N=-1.754380878725D+03  KE= 4.029046399847D+02
 Calling FoFJK, ICntrl=      2127 FMM=F ISym2X=0 I1Cent= 0 IOpClX= 0 NMat=1 NMatS=1 NMatT=0.
 ***** Axes restored to original set *****
 -------------------------------------------------------------------
 Center     Atomic                   Forces (Hartrees/Bohr)
 Number     Number              X              Y              Z
 -------------------------------------------------------------------
      1        6           0.005141151    0.017205758    0.020101627
      2        1           0.002020510   -0.015718647    0.000615616
      3        1           0.004460916    0.001570738   -0.014649875
      4        1          -0.014592283   -0.001516337   -0.004078579
      5        6           0.018247186   -0.019728747   -0.020674159
      6        1          -0.003723779    0.015317729    0.000043140
      7        1          -0.007330854   -0.001161865    0.014567071
      8        6          -0.015210191    0.019379235    0.026068741
      9        1           0.007715805    0.003408804   -0.015440773
     10        1           0.004061507   -0.019031055   -0.000317806
     11        6          -0.035471926   -0.036936130   -0.022772197
     12        1          -0.001818967   -0.005922459    0.016224262
     13        1          -0.011033301   -0.003670346    0.000426881
     14        7          -0.007812697   -0.079134910    0.018749598
     15        1           0.011411048    0.008421053    0.003949483
     16        1           0.003330460   -0.024214443    0.002136083
     17        1           0.009180224    0.007180013   -0.008131335
     18        6          -0.060096976   -0.007912601   -0.039922116
     19        1           0.011473744    0.015452728    0.014601973
     20        8           0.024193580    0.011114163    0.016022410
     21        8           0.055854843    0.115897320   -0.007520046
 -------------------------------------------------------------------
 Cartesian Forces:  Max     0.115897320 RMS     0.025130332

 GradGradGradGradGradGradGradGradGradGradGradGradGradGradGradGradGradGrad
 Berny optimization.
 Internal  Forces:  Max     0.038921248 RMS     0.008786742
 Search for a local minimum.
 Step number   1 out of a maximum of  126
 All quantities printed in internal units (Hartrees-Bohrs-Radians)
 Mixed Optimization -- RFO/linear search
 Second derivative matrix not updated -- first step.
     Eigenvalues ---    0.00237   0.00237   0.00237   0.00494   0.00794
     Eigenvalues ---    0.02347   0.02566   0.02633   0.03423   0.03579
     Eigenvalues ---    0.03777   0.03840   0.04335   0.04345   0.04896
     Eigenvalues ---    0.05382   0.05720   0.05720   0.05979   0.06414
     Eigenvalues ---    0.06919   0.07203   0.07264   0.07655   0.08197
     Eigenvalues ---    0.09224   0.11035   0.11279   0.11701   0.12094
     Eigenvalues ---    0.12839   0.13974   0.14292   0.16000   0.16000
     Eigenvalues ---    0.16000   0.21928   0.21948   0.25494   0.28519
     Eigenvalues ---    0.28519   0.28519   0.30913   0.34380   0.37230
     Eigenvalues ---    0.37230   0.37230   0.37230   0.37230   0.37230
     Eigenvalues ---    0.37230   0.37230   0.37230   0.37946   0.47688
     Eigenvalues ---    0.61109   0.716631000.000001000.000001000.00000
     Eigenvalues --- 1000.000001000.000001000.000001000.000001000.00000
     Eigenvalues --- 1000.000001000.000001000.000001000.000001000.00000
     Eigenvalues --- 1000.000001000.000001000.000001000.000001000.00000
     Eigenvalues --- 1000.000001000.000001000.000001000.000001000.00000
     Eigenvalues --- 1000.000001000.000001000.000001000.000001000.00000
     Eigenvalues --- 1000.000001000.000001000.000001000.000001000.00000
     Eigenvalues --- 1000.000001000.000001000.000001000.000001000.00000
     Eigenvalues --- 1000.000001000.000001000.000001000.000001000.00000
     Eigenvalues --- 1000.000001000.000001000.000001000.000001000.00000
     Eigenvalues --- 1000.000001000.000001000.000001000.000001000.00000
     Eigenvalues --- 1000.000001000.000001000.000001000.000001000.00000
     Eigenvalues --- 1000.000001000.000001000.000001000.000001000.00000
     Eigenvalues --- 1000.000001000.000001000.000001000.000001000.00000
     Eigenvalues --- 1000.000001000.000001000.000001000.000001000.00000
     Eigenvalues --- 1000.000001000.000001000.000001000.000001000.00000
     Eigenvalues --- 1000.000001000.000001000.000001000.000001000.00000
     Eigenvalues --- 1000.00000
 RFO step:  Lambda=-5.11994172D-02 EMin= 2.36824004D-03
 Linear search not attempted -- first point.
 Maximum step size (   0.300) exceeded in Quadratic search.
    -- Step size scaled by   0.525
 Iteration  1 RMS(Cart)=  0.02118990 RMS(Int)=  0.00040408
 Iteration  2 RMS(Cart)=  0.00022526 RMS(Int)=  0.00017101
 Iteration  3 RMS(Cart)=  0.00000019 RMS(Int)=  0.00017101
 Variable       Old X    -DE/DX   Delta X   Delta X   Delta X     New X
                                 (Linear)    (Quad)   (Total)
    R1        2.02201   0.01546   0.00000   0.01919   0.01919   2.04119
    R2        2.02201   0.01508   0.00000   0.01871   0.01871   2.04072
    R3        2.02201   0.01463   0.00000   0.01816   0.01816   2.04016
    R4        2.91018  -0.00134   0.00000  -0.00209  -0.00209   2.90809
    R5        2.02201   0.01533   0.00000   0.01902   0.01902   2.04103
    R6        2.02201   0.01609   0.00000   0.01996   0.01996   2.04197
    R7        2.91018  -0.00431   0.00000  -0.00674  -0.00674   2.90344
    R8        2.02201   0.01756   0.00000   0.02179   0.02179   2.04380
    R9        2.02201   0.01886   0.00000   0.02340   0.02340   2.04540
   R10        2.91018  -0.00453   0.00000  -0.00708  -0.00708   2.90310
   R11        2.02201   0.01645   0.00000   0.02041   0.02041   2.04242
   R12        2.02201   0.02161   0.00000   0.03772   0.03755   2.05956
   R13        2.77790   0.01680   0.00000   0.03354   0.03316   2.81105
   R14        4.22922   0.03432   0.00000   0.11290   0.11306   4.34228
   R15        4.03777   0.00570   0.00000   0.05039   0.05032   4.08809
   R16        3.88815   0.01232   0.00000   0.06607   0.06609   3.95424
   R17        3.32878   0.01347   0.00000   0.06322   0.06333   3.39211
   R18        1.88973   0.01504   0.00000   0.02257   0.02286   1.91259
   R19        1.88973   0.02412   0.00000   0.02400   0.02400   1.91373
   R20        1.88973   0.01632   0.00000   0.02451   0.02400   1.91372
   R21        3.68457   0.03892   0.00000   0.14050   0.14084   3.82540
   R22        3.25747   0.02029   0.00000   0.06739   0.06752   3.32499
   R23        3.50990   0.01984   0.00000   0.07053   0.07041   3.58031
   R24        2.02201   0.02403   0.00000   0.02982   0.02982   2.05183
   R25        2.37803  -0.02556   0.00000  -0.01658  -0.01670   2.36133
   R26        2.37803   0.00985   0.00000   0.00591   0.00589   2.38392
    A1        1.91063  -0.00325   0.00000  -0.00828  -0.00830   1.90233
    A2        1.91063  -0.00393   0.00000  -0.00941  -0.00947   1.90116
    A3        1.91063   0.00362   0.00000   0.00909   0.00905   1.91968
    A4        1.91063  -0.00377   0.00000  -0.00958  -0.00962   1.90101
    A5        1.91063   0.00271   0.00000   0.00655   0.00652   1.91715
    A6        1.91063   0.00464   0.00000   0.01163   0.01158   1.92221
    A7        1.91063  -0.00030   0.00000   0.00262   0.00263   1.91327
    A8        1.91063  -0.00132   0.00000  -0.00039  -0.00040   1.91023
    A9        1.91063   0.00651   0.00000   0.01484   0.01481   1.92545
   A10        1.91063  -0.00057   0.00000  -0.00820  -0.00823   1.90240
   A11        1.91063  -0.00272   0.00000  -0.00626  -0.00632   1.90431
   A12        1.91063  -0.00160   0.00000  -0.00260  -0.00265   1.90799
   A13        1.91063  -0.00025   0.00000  -0.00244  -0.00245   1.90819
   A14        1.91063  -0.00172   0.00000  -0.00338  -0.00345   1.90718
   A15        1.91063   0.00165   0.00000   0.00456   0.00454   1.91518
   A16        1.91063  -0.00098   0.00000  -0.00629  -0.00629   1.90435
   A17        1.91063  -0.00146   0.00000  -0.00469  -0.00467   1.90596
   A18        1.91063   0.00276   0.00000   0.01224   0.01224   1.92287
   A19        1.91063   0.00008   0.00000   0.00135   0.00126   1.91189
   A20        1.91063   0.00428   0.00000   0.00623   0.00622   1.91685
   A21        1.91063  -0.00143   0.00000  -0.00555  -0.00551   1.90512
   A22        2.24958   0.00039   0.00000   0.00323   0.00328   2.25286
   A23        1.91063   0.00123   0.00000   0.00565   0.00557   1.91620
   A24        1.91063  -0.00158   0.00000  -0.01083  -0.01075   1.89989
   A25        2.11879  -0.00054   0.00000  -0.00483  -0.00477   2.11402
   A26        1.91063  -0.00257   0.00000   0.00313   0.00311   1.91374
   A27        2.30201   0.00783   0.00000   0.01895   0.01882   2.32084
   A28        2.85225  -0.00028   0.00000   0.00548   0.00561   2.85786
   A29        1.20606  -0.00560   0.00000  -0.01826  -0.01806   1.18801
   A30        1.91063  -0.00166   0.00000  -0.00290  -0.00295   1.90768
   A31        1.91063   0.00025   0.00000   0.00444   0.00445   1.91509
   A32        1.91063  -0.00403   0.00000  -0.00684  -0.00703   1.90360
   A33        1.91063   0.00753   0.00000   0.02504   0.02497   1.93560
   A34        1.91063  -0.01181   0.00000  -0.05011  -0.05064   1.85999
   A35        1.91063   0.00972   0.00000   0.03037   0.03016   1.94079
   A36        2.95386   0.00119   0.00000  -0.00076  -0.00074   2.95312
   A37        2.74574  -0.00503   0.00000  -0.01660  -0.01673   2.72900
   A38        2.09440  -0.00497   0.00000  -0.01060  -0.01067   2.08372
   A39        2.09440  -0.00479   0.00000  -0.01360  -0.01369   2.08070
   A40        2.09440   0.00976   0.00000   0.02420   0.02420   2.11860
   A41        1.04998  -0.00180   0.00000  -0.01746  -0.01719   1.03280
   A42        1.02472  -0.00200   0.00000  -0.01694  -0.01690   1.00782
   A43        1.96658  -0.00386   0.00000  -0.00431  -0.00456   1.96202
   A44        1.19044  -0.00120   0.00000  -0.01971  -0.01949   1.17095
   A45        1.49609  -0.00103   0.00000  -0.02052  -0.02034   1.47574
   A46        1.42793  -0.00112   0.00000  -0.02064  -0.02061   1.40732
   A47        2.54927  -0.00304   0.00000  -0.00417  -0.00471   2.54457
   A48        0.94427  -0.00181   0.00000  -0.02632  -0.02650   0.91776
   A49        2.23998   0.00313   0.00000   0.02701   0.02661   2.26658
   A50        2.96383  -0.00696   0.00000  -0.02320  -0.02326   2.94057
    D1        3.14159   0.00061   0.00000   0.00345   0.00346  -3.13814
    D2       -1.04720  -0.00108   0.00000  -0.00524  -0.00526  -1.05245
    D3        1.04720   0.00015   0.00000   0.00043   0.00041   1.04761
    D4        1.04720   0.00073   0.00000   0.00400   0.00403   1.05122
    D5        3.14159  -0.00096   0.00000  -0.00468  -0.00469   3.13691
    D6       -1.04720   0.00026   0.00000   0.00098   0.00098  -1.04622
    D7       -1.04720   0.00085   0.00000   0.00461   0.00463  -1.04257
    D8        1.04720  -0.00084   0.00000  -0.00408  -0.00408   1.04312
    D9       -3.14159   0.00039   0.00000   0.00158   0.00158  -3.14001
   D10        1.04720  -0.00042   0.00000  -0.00295  -0.00295   1.04425
   D11       -1.04720   0.00198   0.00000   0.00832   0.00829  -1.03890
   D12        3.14159  -0.00136   0.00000  -0.00740  -0.00740   3.13419
   D13       -1.04720  -0.00237   0.00000  -0.01141  -0.01138  -1.05858
   D14        3.14159   0.00003   0.00000  -0.00014  -0.00013   3.14146
   D15        1.04720  -0.00330   0.00000  -0.01585  -0.01583   1.03137
   D16        3.14159   0.00097   0.00000   0.00407   0.00406  -3.13753
   D17        1.04720   0.00338   0.00000   0.01533   0.01531   1.06251
   D18       -1.04720   0.00004   0.00000  -0.00038  -0.00038  -1.04758
   D19        1.04720   0.00178   0.00000   0.00920   0.00919   1.05639
   D20       -1.04720  -0.00239   0.00000  -0.00236  -0.00229  -1.04949
   D21        3.14159  -0.00098   0.00000  -0.00662  -0.00651   3.13508
   D22       -1.99581   0.00266   0.00000   0.01237   0.01227  -1.98354
   D23       -3.14159   0.00159   0.00000   0.00613   0.00610  -3.13549
   D24        1.04720  -0.00258   0.00000  -0.00544  -0.00538   1.04182
   D25       -1.04720  -0.00118   0.00000  -0.00970  -0.00960  -1.05679
   D26        0.09859   0.00247   0.00000   0.00930   0.00918   0.10777
   D27       -1.04720   0.00119   0.00000   0.00305   0.00300  -1.04420
   D28        3.14159  -0.00298   0.00000  -0.00852  -0.00848   3.13311
   D29        1.04720  -0.00158   0.00000  -0.01278  -0.01270   1.03450
   D30        2.19298   0.00207   0.00000   0.00622   0.00608   2.19906
   D31       -2.57208   0.00035   0.00000   0.00558   0.00544  -2.56664
   D32       -3.12628   0.00211   0.00000   0.00097   0.00093  -3.12535
   D33        1.61671  -0.00312   0.00000  -0.00335  -0.00343   1.61328
   D34        1.06251  -0.00135   0.00000  -0.00796  -0.00794   1.05457
   D35       -0.47768  -0.00036   0.00000   0.00453   0.00442  -0.47326
   D36       -1.03189   0.00140   0.00000  -0.00008  -0.00009  -1.03198
   D37        3.14159  -0.00740   0.00000  -0.02765  -0.02769   3.11390
   D38       -1.04720   0.00096   0.00000   0.00395   0.00397  -1.04323
   D39        1.04720   0.01054   0.00000   0.03968   0.03945   1.08664
   D40       -1.04720  -0.00915   0.00000  -0.03602  -0.03595  -1.08314
   D41        1.04720  -0.00080   0.00000  -0.00441  -0.00429   1.04291
   D42        3.14159   0.00879   0.00000   0.03132   0.03119  -3.11040
   D43        1.04720  -0.01019   0.00000  -0.03381  -0.03382   1.01337
   D44        3.14159  -0.00183   0.00000  -0.00220  -0.00216   3.13943
   D45       -1.04720   0.00776   0.00000   0.03353   0.03332  -1.01388
   D46       -2.13608   0.00090   0.00000   0.00845   0.00866  -2.12742
   D47       -1.02354   0.00008   0.00000  -0.01098  -0.01118  -1.03472
   D48        2.01133  -0.00409   0.00000  -0.02239  -0.02233   1.98900
   D49        1.11445   0.00183   0.00000   0.01157   0.01169   1.12613
   D50        2.22699   0.00101   0.00000  -0.00785  -0.00815   2.21884
   D51       -1.02132  -0.00316   0.00000  -0.01927  -0.01930  -1.04062
   D52       -0.80941  -0.00021   0.00000  -0.00969  -0.00972  -0.81913
   D53        2.95615  -0.00180   0.00000   0.00417   0.00431   2.96045
   D54        2.49964  -0.00017   0.00000   0.01939   0.01948   2.51912
   D55       -2.83549  -0.00189   0.00000  -0.00490  -0.00488  -2.84036
   D56       -2.79354   0.00459   0.00000   0.01248   0.01233  -2.78121
   D57       -1.92617  -0.00660   0.00000  -0.03040  -0.03018  -1.95634
   D58        2.43332  -0.00303   0.00000  -0.00606  -0.00617   2.42715
   D59        1.89419   0.00526   0.00000   0.02855   0.02794   1.92212
   D60        1.22767   0.00149   0.00000   0.01539   0.01599   1.24366
   D61        2.97407  -0.00362   0.00000  -0.02580  -0.02555   2.94852
   D62       -0.70827   0.00068   0.00000   0.01346   0.01334  -0.69493
   D63       -1.24741   0.00897   0.00000   0.04807   0.04745  -1.19996
   D64       -1.91392   0.00520   0.00000   0.03491   0.03550  -1.87842
   D65       -0.16752   0.00009   0.00000  -0.00628  -0.00604  -0.17356
         Item               Value     Threshold  Converged?
 Maximum Force            0.038921     0.000450     NO 
 RMS     Force            0.008787     0.000300     NO 
 Maximum Displacement     0.100152     0.001800     NO 
 RMS     Displacement     0.021151     0.001200     NO 
 Predicted change in Energy=-2.214028D-02
 GradGradGradGradGradGradGradGradGradGradGradGradGradGradGradGradGradGrad

                          Input orientation:                          
 ---------------------------------------------------------------------
 Center     Atomic      Atomic             Coordinates (Angstroms)
 Number     Number       Type             X           Y           Z
 ---------------------------------------------------------------------
      1          6           0       -2.124152   -0.832580    0.108620
      2          1           0       -1.875362   -1.858084    0.339218
      3          1           0       -1.686411   -0.570149   -0.843061
      4          1           0       -3.197445   -0.740044    0.037685
      5          6           0       -1.583534    0.099697    1.207157
      6          1           0       -1.838487    1.122684    0.972558
      7          1           0       -2.029003   -0.165310    2.155286
      8          6           0       -0.055802   -0.026961    1.310235
      9          1           0        0.390508    0.242199    0.362568
     10          1           0        0.202705   -1.051360    1.545458
     11          6           0        0.470316    0.916397    2.402640
     12          1           0        0.032277    0.648251    3.353612
     13          1           0        0.214543    1.946712    2.155959
     14          7           0        1.948255    0.776936    2.497704
     15          1           0        2.300240    1.416535    3.198674
     16          1           0        2.187158   -0.179639    2.728908
     17          1           0        2.364180    1.055748    1.617461
     18          6           0        1.206687    3.836867    2.506583
     19          1           0        1.732676    4.592403    3.082272
     20          8           0        0.014095    4.029350    2.187077
     21          8           0        1.807603    2.773130    2.192275
 ---------------------------------------------------------------------
                    Distance matrix (angstroms):
                    1          2          3          4          5
     1  C    0.000000
     2  H    1.080152   0.000000
     3  H    1.079900   1.758483   0.000000
     4  H    1.079608   1.757510   1.757214   0.000000
     5  C    1.538893   2.161340   2.159322   2.162762   0.000000
     6  H    2.156629   3.047533   2.487022   2.488073   1.080064
     7  H    2.154796   2.487407   3.044889   2.485923   1.080565
     8  C    2.524079   2.758022   2.755108   3.463783   1.536435
     9  H    2.746481   3.089644   2.535161   3.734134   2.151855
    10  H    2.743470   2.534596   3.083073   3.732467   2.151750
    11  C    3.879782   4.178236   4.170834   4.667898   2.512862
    12  H    4.168095   4.359745   4.695791   4.832581   2.742084
    13  H    4.169599   4.705818   4.352279   4.831915   2.746774
    14  N    4.988262   5.120785   5.117239   5.901792   3.820693
    15  H    5.846554   6.027874   6.014641   6.698300   4.558936
    16  H    5.087203   5.003185   5.283558   6.045716   4.075766
    17  H    5.097794   5.300758   5.010488   6.054108   4.082503
    18  C    6.216788   6.828540   6.245952   6.814686   4.841516
    19  H    7.290279   7.883594   7.331461   7.874680   5.890476
    20  O    5.703547   6.453410   5.764446   6.138484   4.353714
    21  O    5.727256   6.200499   5.709545   6.483452   4.429166
                    6          7          8          9         10
     6  H    0.000000
     7  H    1.758997   0.000000
     8  C    2.147946   2.150994   0.000000
     9  H    2.473006   3.038739   1.081532   0.000000
    10  H    3.036633   2.477397   1.082381   1.762893   0.000000
    11  C    2.723648   2.734569   1.536252   2.150070   2.162971
    12  H    3.065006   2.519274   2.153848   3.039663   2.487398
    13  H    2.508862   3.081255   2.164190   2.480439   3.059622
    14  N    4.096953   4.101665   2.464260   2.696539   2.701182
    15  H    4.708609   4.725805   3.346762   3.615195   3.636383
    16  H    4.581116   4.255027   2.658347   3.000910   2.469516
    17  H    4.252386   4.591328   2.668887   2.476287   3.019447
    18  C    4.358108   5.158538   4.237251   4.264339   5.081979
    19  H    5.407684   6.135581   5.260920   5.303063   6.046046
    20  O    3.654562   4.665879   4.150589   4.220549   5.124535
    21  O    4.183976   4.832736   3.477180   3.429518   4.197713
                   11         12         13         14         15
    11  C    0.000000
    12  H    1.080800   0.000000
    13  H    1.089872   1.775837   0.000000
    14  N    1.487545   2.102406   2.119180   0.000000
    15  H    2.057287   2.399567   2.391333   1.012097   0.000000
    16  H    2.062836   2.391478   2.956492   1.012701   1.667704
    17  H    2.054908   2.935651   2.388459   1.012698   1.623111
    18  C    3.013668   3.501995   2.163325   3.148521   2.744605
    19  H    3.945690   4.303640   3.187862   3.866003   3.228283
    20  O    3.153582   3.576725   2.092493   3.796797   3.616157
    21  O    2.297836   3.002598   1.795028   2.024317   1.759511
                   16         17         18         19         20
    16  H    0.000000
    17  H    1.671176   0.000000
    18  C    4.140419   3.140853   0.000000
    19  H    4.806641   3.879742   1.085779   0.000000
    20  O    4.767742   3.832711   1.249564   2.017901   0.000000
    21  O    3.025041   1.894621   1.261518   2.026688   2.189701
                   21
    21  O    0.000000
 Stoichiometry    C5H13NO2
 Framework group  C1[X(C5H13NO2)]
 Deg. of freedom    57
 Full point group                 C1      NOp   1
 Largest Abelian subgroup         C1      NOp   1
 Largest concise Abelian subgroup C1      NOp   1
                         Standard orientation:                         
 ---------------------------------------------------------------------
 Center     Atomic      Atomic             Coordinates (Angstroms)
 Number     Number       Type             X           Y           Z
 ---------------------------------------------------------------------
      1          6           0        3.563440   -0.614019   -0.319245
      2          1           0        4.101806    0.288794   -0.070610
      3          1           0        3.456994   -0.675618   -1.392119
      4          1           0        4.129905   -1.465843    0.025814
      5          6           0        2.174636   -0.597755    0.343440
      6          1           0        1.643060   -1.504236    0.093922
      7          1           0        2.288646   -0.540818    1.416464
      8          6           0        1.363823    0.611871   -0.146476
      9          1           0        1.246087    0.552917   -1.219963
     10          1           0        1.894207    1.521982    0.102400
     11          6           0       -0.022794    0.609056    0.514854
     12          1           0        0.088316    0.674039    1.587962
     13          1           0       -0.555064   -0.305439    0.253691
     14          7           0       -0.792959    1.789366    0.038927
     15          1           0       -1.716342    1.775464    0.453064
     16          1           0       -0.300372    2.639918    0.282816
     17          1           0       -0.924483    1.716689   -0.962561
     18          6           0       -2.646757   -0.753257   -0.069197
     19          1           0       -3.710736   -0.744576    0.147110
     20          8           0       -1.998618   -1.810646    0.083298
     21          8           0       -2.087057    0.311369   -0.449640
 ---------------------------------------------------------------------
 Rotational constants (GHZ):      3.0802174      0.9133554      0.7434804
 Standard basis: 6-311+G(d) (5D, 7F)
 There are   215 symmetry adapted basis functions of A   symmetry.
 Integral buffers will be    131072 words long.
 Raffenetti 2 integral format.
 Two-electron integral symmetry is turned on.
   215 basis functions,   353 primitive gaussians,   223 cartesian basis functions
    33 alpha electrons       33 beta electrons
       nuclear repulsion energy       401.6859550152 Hartrees.
 NAtoms=   21 NActive=   21 NUniq=   21 SFac= 7.50D-01 NAtFMM=   80 NAOKFM=F Big=F
 One-electron integrals computed using PRISM.
 NBasis=   215 RedAO= T  NBF=   215
 NBsUse=   215 1.00D-06 NBFU=   215
 Initial guess read from the read-write file.
 B after Tr=     0.000000    0.000000    0.000000
         Rot=    1.000000    0.000000    0.000000    0.000000 Ang=   0.00 deg.
 Initial guess orbital symmetries:
       Occupied  (A) (A) (A) (A) (A) (A) (A) (A) (A) (A) (A) (A)
                 (A) (A) (A) (A) (A) (A) (A) (A) (A) (A) (A) (A)
                 (A) (A) (A) (A) (A) (A) (A) (A) (A)
       Virtual   (A) (A) (A) (A) (A) (A) (A) (A) (A) (A) (A) (A)
                 (A) (A) (A) (A) (A) (A) (A) (A) (A) (A) (A) (A)
                 (A) (A) (A) (A) (A) (A) (A) (A) (A) (A) (A) (A)
                 (A) (A) (A) (A) (A) (A) (A) (A) (A) (A) (A) (A)
                 (A) (A) (A) (A) (A) (A) (A) (A) (A) (A) (A) (A)
                 (A) (A) (A) (A) (A) (A) (A) (A) (A) (A) (A) (A)
                 (A) (A) (A) (A) (A) (A) (A) (A) (A) (A) (A) (A)
                 (A) (A) (A) (A) (A) (A) (A) (A) (A) (A) (A) (A)
                 (A) (A) (A) (A) (A) (A) (A) (A) (A) (A) (A) (A)
                 (A) (A) (A) (A) (A) (A) (A) (A) (A) (A) (A) (A)
                 (A) (A) (A) (A) (A) (A) (A) (A) (A) (A) (A) (A)
                 (A) (A) (A) (A) (A) (A) (A) (A) (A) (A) (A) (A)
                 (A) (A) (A) (A) (A) (A) (A) (A) (A) (A) (A) (A)
                 (A) (A) (A) (A) (A) (A) (A) (A) (A) (A) (A) (A)
                 (A) (A) (A) (A) (A) (A) (A) (A) (A) (A) (A) (A)
                 (A) (A)
 Harris functional with IExCor= 1009 diagonalized for initial guess.
 ExpMin= 4.38D-02 ExpMax= 8.59D+03 ExpMxC= 1.30D+03 IAcc=2 IRadAn=         0 AccDes= 0.00D+00
 HarFok:  IExCor= 1009 AccDes= 0.00D+00 IRadAn=         0 IDoV= 1
 ScaDFX=  1.000000  1.000000  1.000000  1.000000
 FoFCou: FMM=F IPFlag=           0 FMFlag=      100000 FMFlg1=           0
         NFxFlg=           0 DoJE=T BraDBF=F KetDBF=T FulRan=T
         Omega=  0.000000  0.000000  1.000000  0.000000  0.000000 ICntrl=     500 IOpCl=  0
         NMat0=    1 NMatS0=    1 NMatT0=    0 NMatD0=    1 NMtDS0=    0 NMtDT0=    0
         I1Cent=           4 NGrid=           0.
 Petite list used in FoFCou.
 Requested convergence on RMS density matrix=1.00D-08 within 128 cycles.
 Requested convergence on MAX density matrix=1.00D-06.
 Requested convergence on             energy=1.00D-06.
 No special actions if energy rises.
 SCF Done:  E(RM062X) =  -403.414348699     A.U. after   12 cycles
             Convg  =    0.5237D-08             -V/T =  2.0021
 Calling FoFJK, ICntrl=      2127 FMM=F ISym2X=0 I1Cent= 0 IOpClX= 0 NMat=1 NMatS=1 NMatT=0.
 ***** Axes restored to original set *****
 -------------------------------------------------------------------
 Center     Atomic                   Forces (Hartrees/Bohr)
 Number     Number              X              Y              Z
 -------------------------------------------------------------------
      1        6           0.003787828    0.011607232    0.013748395
      2        1           0.000769941   -0.008692828   -0.000272564
      3        1           0.002092917    0.000420141   -0.008226976
      4        1          -0.007689191   -0.001056810   -0.002584557
      5        6           0.011058603   -0.013517376   -0.014677726
      6        1          -0.002524021    0.008487947    0.001144458
      7        1          -0.004458126    0.000346702    0.008067092
      8        6          -0.009388207    0.012294050    0.017579513
      9        1           0.004462814    0.001180068   -0.008493865
     10        1           0.002662412   -0.010382565   -0.001325019
     11        6          -0.029650642   -0.025369352   -0.017078127
     12        1           0.000978558   -0.003093870    0.009299356
     13        1          -0.004742166   -0.014086806    0.003457652
     14        7          -0.007277541   -0.056954895    0.013639655
     15        1           0.005720854    0.003432741   -0.000459620
     16        1           0.001862451   -0.009800269   -0.001267211
     17        1           0.003641485    0.002295844   -0.000840166
     18        6          -0.043243116   -0.003593054   -0.026950984
     19        1           0.007088547    0.008613743    0.008336453
     20        8           0.017078425    0.008451622    0.011129925
     21        8           0.047768174    0.089417732   -0.004225684
 -------------------------------------------------------------------
 Cartesian Forces:  Max     0.089417732 RMS     0.018419601

 GradGradGradGradGradGradGradGradGradGradGradGradGradGradGradGradGradGrad
 Berny optimization.
 Using GEDIIS/GDIIS optimizer.
 Internal  Forces:  Max     0.026636953 RMS     0.005681245
 Search for a local minimum.
 Step number   2 out of a maximum of  126
 All quantities printed in internal units (Hartrees-Bohrs-Radians)
 Mixed Optimization -- RFO/linear search
 Update second derivatives using D2CorX and points    1    2
 DE= -2.26D-02 DEPred=-2.21D-02 R= 1.02D+00
 SS=  1.41D+00  RLast= 3.00D-01 DXNew= 5.0454D-01 8.9994D-01
 Trust test= 1.02D+00 RLast= 3.00D-01 DXMaxT set to 5.05D-01
 Use linear search instead of GDIIS.
 Linear search step of   0.600 exceeds DXMaxT=   0.505 but not scaled.
 Quartic linear search produced a step of  2.00000.
 Iteration  1 RMS(Cart)=  0.03943927 RMS(Int)=  0.00507251
 Iteration  2 RMS(Cart)=  0.00344452 RMS(Int)=  0.00103035
 Iteration  3 RMS(Cart)=  0.00000978 RMS(Int)=  0.00103021
 Iteration  4 RMS(Cart)=  0.00000005 RMS(Int)=  0.00103021
 Variable       Old X    -DE/DX   Delta X   Delta X   Delta X     New X
                                 (Linear)    (Quad)   (Total)
    R1        2.04119   0.00838   0.03837   0.00000   0.03837   2.07956
    R2        2.04072   0.00820   0.03742   0.00000   0.03742   2.07813
    R3        2.04016   0.00772   0.03631   0.00000   0.03631   2.07647
    R4        2.90809  -0.00292  -0.00418   0.00000  -0.00418   2.90390
    R5        2.04103   0.00838   0.03804   0.00000   0.03804   2.07906
    R6        2.04197   0.00883   0.03993   0.00000   0.03993   2.08190
    R7        2.90344  -0.00305  -0.01347   0.00000  -0.01347   2.88997
    R8        2.04380   0.00958   0.04358   0.00000   0.04358   2.08738
    R9        2.04540   0.01018   0.04679   0.00000   0.04679   2.09220
   R10        2.90310  -0.00422  -0.01416   0.00000  -0.01416   2.88893
   R11        2.04242   0.00855   0.04082   0.00000   0.04082   2.08323
   R12        2.05956   0.00944   0.07511   0.00000   0.07417   2.13372
   R13        2.81105   0.01009   0.06631   0.00000   0.06418   2.87524
   R14        4.34228   0.02496   0.22612   0.00000   0.22692   4.56920
   R15        4.08809   0.00648   0.10064   0.00000   0.10030   4.18839
   R16        3.95424   0.01036   0.13218   0.00000   0.13236   4.08660
   R17        3.39211   0.01073   0.12666   0.00000   0.12709   3.51920
   R18        1.91259   0.00883   0.04572   0.00000   0.04776   1.96034
   R19        1.91373   0.00940   0.04800   0.00000   0.04800   1.96173
   R20        1.91372   0.00918   0.04799   0.00000   0.04499   1.95871
   R21        3.82540   0.02664   0.28168   0.00000   0.28336   4.10876
   R22        3.32499   0.01280   0.13505   0.00000   0.13587   3.46086
   R23        3.58031   0.01340   0.14083   0.00000   0.14018   3.72050
   R24        2.05183   0.01384   0.05964   0.00000   0.05964   2.11146
   R25        2.36133  -0.01859  -0.03340   0.00000  -0.03401   2.32732
   R26        2.38392   0.00525   0.01179   0.00000   0.01163   2.39555
    A1        1.90233  -0.00236  -0.01661   0.00000  -0.01676   1.88557
    A2        1.90116  -0.00262  -0.01895   0.00000  -0.01930   1.88186
    A3        1.91968   0.00251   0.01809   0.00000   0.01783   1.93750
    A4        1.90101  -0.00257  -0.01924   0.00000  -0.01945   1.88156
    A5        1.91715   0.00205   0.01303   0.00000   0.01284   1.92998
    A6        1.92221   0.00285   0.02315   0.00000   0.02286   1.94507
    A7        1.91327  -0.00008   0.00527   0.00000   0.00535   1.91862
    A8        1.91023  -0.00067  -0.00080   0.00000  -0.00084   1.90939
    A9        1.92545   0.00394   0.02963   0.00000   0.02948   1.95493
   A10        1.90240  -0.00087  -0.01646   0.00000  -0.01663   1.88577
   A11        1.90431  -0.00153  -0.01264   0.00000  -0.01298   1.89133
   A12        1.90799  -0.00085  -0.00529   0.00000  -0.00557   1.90242
   A13        1.90819  -0.00022  -0.00489   0.00000  -0.00490   1.90329
   A14        1.90718  -0.00090  -0.00690   0.00000  -0.00735   1.89984
   A15        1.91518   0.00105   0.00909   0.00000   0.00896   1.92413
   A16        1.90435  -0.00098  -0.01257   0.00000  -0.01256   1.89179
   A17        1.90596  -0.00078  -0.00934   0.00000  -0.00923   1.89673
   A18        1.92287   0.00181   0.02447   0.00000   0.02448   1.94735
   A19        1.91189   0.00018   0.00252   0.00000   0.00194   1.91383
   A20        1.91685   0.00330   0.01244   0.00000   0.01238   1.92924
   A21        1.90512  -0.00063  -0.01103   0.00000  -0.01082   1.89430
   A22        2.25286   0.00069   0.00655   0.00000   0.00681   2.25967
   A23        1.91620   0.00081   0.01114   0.00000   0.01073   1.92693
   A24        1.89989  -0.00120  -0.02149   0.00000  -0.02100   1.87889
   A25        2.11402  -0.00091  -0.00954   0.00000  -0.00920   2.10482
   A26        1.91374  -0.00251   0.00621   0.00000   0.00594   1.91968
   A27        2.32084   0.00680   0.03764   0.00000   0.03696   2.35779
   A28        2.85786   0.00098   0.01121   0.00000   0.01195   2.86980
   A29        1.18801  -0.00535  -0.03611   0.00000  -0.03498   1.15303
   A30        1.90768  -0.00069  -0.00591   0.00000  -0.00620   1.90148
   A31        1.91509   0.00010   0.00891   0.00000   0.00900   1.92409
   A32        1.90360  -0.00280  -0.01406   0.00000  -0.01508   1.88853
   A33        1.93560   0.00469   0.04993   0.00000   0.04942   1.98502
   A34        1.85999  -0.00808  -0.10128   0.00000  -0.10421   1.75578
   A35        1.94079   0.00641   0.06032   0.00000   0.05910   1.99990
   A36        2.95312  -0.00013  -0.00149   0.00000  -0.00137   2.95175
   A37        2.72900  -0.00435  -0.03347   0.00000  -0.03421   2.69480
   A38        2.08372  -0.00286  -0.02134   0.00000  -0.02173   2.06199
   A39        2.08070  -0.00338  -0.02738   0.00000  -0.02785   2.05285
   A40        2.11860   0.00620   0.04840   0.00000   0.04832   2.16691
   A41        1.03280  -0.00190  -0.03438   0.00000  -0.03268   1.00011
   A42        1.00782  -0.00237  -0.03379   0.00000  -0.03346   0.97436
   A43        1.96202  -0.00303  -0.00912   0.00000  -0.01034   1.95168
   A44        1.17095  -0.00311  -0.03898   0.00000  -0.03765   1.13329
   A45        1.47574  -0.00298  -0.04069   0.00000  -0.03950   1.43624
   A46        1.40732  -0.00331  -0.04122   0.00000  -0.04092   1.36640
   A47        2.54457  -0.00259  -0.00941   0.00000  -0.01224   2.53233
   A48        0.91776  -0.00208  -0.05300   0.00000  -0.05398   0.86379
   A49        2.26658   0.00278   0.05321   0.00000   0.05077   2.31735
   A50        2.94057  -0.00620  -0.04652   0.00000  -0.04661   2.89396
    D1       -3.13814   0.00063   0.00691   0.00000   0.00698  -3.13116
    D2       -1.05245  -0.00088  -0.01051   0.00000  -0.01063  -1.06308
    D3        1.04761   0.00010   0.00082   0.00000   0.00072   1.04832
    D4        1.05122   0.00068   0.00805   0.00000   0.00818   1.05940
    D5        3.13691  -0.00083  -0.00938   0.00000  -0.00942   3.12748
    D6       -1.04622   0.00015   0.00195   0.00000   0.00192  -1.04430
    D7       -1.04257   0.00078   0.00926   0.00000   0.00941  -1.03315
    D8        1.04312  -0.00074  -0.00816   0.00000  -0.00819   1.03492
    D9       -3.14001   0.00025   0.00317   0.00000   0.00315  -3.13686
   D10        1.04425  -0.00047  -0.00590   0.00000  -0.00592   1.03832
   D11       -1.03890   0.00139   0.01659   0.00000   0.01644  -1.02247
   D12        3.13419  -0.00092  -0.01480   0.00000  -0.01481   3.11938
   D13       -1.05858  -0.00184  -0.02276   0.00000  -0.02258  -1.08116
   D14        3.14146   0.00002  -0.00027   0.00000  -0.00022   3.14123
   D15        1.03137  -0.00230  -0.03165   0.00000  -0.03147   0.99990
   D16       -3.13753   0.00062   0.00813   0.00000   0.00810  -3.12943
   D17        1.06251   0.00248   0.03062   0.00000   0.03046   1.09296
   D18       -1.04758   0.00017  -0.00077   0.00000  -0.00079  -1.04837
   D19        1.05639   0.00140   0.01838   0.00000   0.01830   1.07468
   D20       -1.04949  -0.00178  -0.00458   0.00000  -0.00422  -1.05371
   D21        3.13508  -0.00033  -0.01302   0.00000  -0.01232   3.12277
   D22       -1.98354   0.00187   0.02454   0.00000   0.02398  -1.95956
   D23       -3.13549   0.00129   0.01220   0.00000   0.01204  -3.12346
   D24        1.04182  -0.00189  -0.01076   0.00000  -0.01048   1.03134
   D25       -1.05679  -0.00044  -0.01919   0.00000  -0.01858  -1.07537
   D26        0.10777   0.00176   0.01836   0.00000   0.01772   0.12549
   D27       -1.04420   0.00071   0.00599   0.00000   0.00568  -1.03852
   D28        3.13311  -0.00247  -0.01697   0.00000  -0.01683   3.11628
   D29        1.03450  -0.00102  -0.02540   0.00000  -0.02493   1.00956
   D30        2.19906   0.00118   0.01215   0.00000   0.01136   2.21043
   D31       -2.56664   0.00022   0.01088   0.00000   0.01016  -2.55647
   D32       -3.12535   0.00141   0.00186   0.00000   0.00164  -3.12371
   D33        1.61328  -0.00260  -0.00687   0.00000  -0.00724   1.60604
   D34        1.05457  -0.00140  -0.01589   0.00000  -0.01576   1.03880
   D35       -0.47326  -0.00007   0.00884   0.00000   0.00830  -0.46496
   D36       -1.03198   0.00112  -0.00018   0.00000  -0.00022  -1.03220
   D37        3.11390  -0.00493  -0.05539   0.00000  -0.05559   3.05831
   D38       -1.04323   0.00050   0.00794   0.00000   0.00805  -1.03518
   D39        1.08664   0.00670   0.07889   0.00000   0.07766   1.16430
   D40       -1.08314  -0.00579  -0.07189   0.00000  -0.07145  -1.15460
   D41        1.04291  -0.00036  -0.00857   0.00000  -0.00781   1.03510
   D42       -3.11040   0.00584   0.06239   0.00000   0.06180  -3.04860
   D43        1.01337  -0.00705  -0.06765   0.00000  -0.06768   0.94569
   D44        3.13943  -0.00162  -0.00433   0.00000  -0.00404   3.13539
[...]
    11  C    3.898094   4.221600   4.214954   4.708043   2.536585
    12  H    4.199954   4.420318   4.754161   4.883954   2.779824
    13  H    4.197726   4.757896   4.414907   4.878454   2.777683
    14  N    5.060710   5.234407   5.220014   5.982307   3.868822
    15  H    6.393449   6.694308   6.589158   7.200659   5.028381
    16  H    5.202427   5.161860   5.414328   6.174310   4.163386
    17  H    5.184924   5.423072   5.128600   6.149969   4.141289
    18  C    7.200594   7.736275   7.244586   7.898582   5.834770
    19  H    8.154942   8.739647   8.203870   8.789356   6.767929
    20  O    6.494010   7.095305   6.393860   7.209779   5.250281
    21  O    7.173536   7.555220   7.364576   7.914245   5.756767
                    6          7          8          9         10
     6  H    0.000000
     7  H    1.752840   0.000000
     8  C    2.151297   2.154364   0.000000
     9  H    2.502293   3.060845   1.096859   0.000000
    10  H    3.059007   2.509952   1.097551   1.758597   0.000000
    11  C    2.757538   2.760344   1.524557   2.149566   2.155553
    12  H    3.096429   2.552508   2.161515   3.060747   2.511753
    13  H    2.547564   3.096148   2.159584   2.501271   3.063641
    14  N    4.135541   4.145100   2.523683   2.761202   2.775497
    15  H    5.033392   5.162751   3.935069   4.188894   4.347043
    16  H    4.657105   4.353673   2.747561   3.068176   2.580335
    17  H    4.310961   4.646601   2.736369   2.552060   3.085051
    18  C    5.482714   6.108867   4.976571   4.988858   5.675802
    19  H    6.322771   6.995716   6.014250   6.033793   6.742425
    20  O    4.834956   5.719993   4.397963   4.195244   5.196188
    21  O    5.615858   5.856484   4.795987   5.025076   5.297560
                   11         12         13         14         15
    11  C    0.000000
    12  H    1.094151   0.000000
    13  H    1.093511   1.759617   0.000000
    14  N    1.471257   2.082723   2.070708   0.000000
    15  H    2.517069   2.765385   2.522006   1.677760   0.000000
    16  H    2.062939   2.411728   2.931495   1.015264   2.376812
    17  H    2.047620   2.930634   2.366981   1.017249   2.114796
    18  C    3.661467   4.079196   3.064479   3.199339   1.906158
    19  H    4.681802   5.001073   4.006775   4.275020   2.850063
    20  O    3.343205   4.038638   2.639032   3.020318   2.350976
    21  O    3.335676   3.496194   3.081006   2.675407   1.015161
                   16         17         18         19         20
    16  H    0.000000
    17  H    1.638214   0.000000
    18  C    4.093242   3.159650   0.000000
    19  H    5.141278   4.247845   1.098671   0.000000
    20  O    3.988253   2.682102   1.206221   2.025545   0.000000
    21  O    3.385090   2.985272   1.315793   1.997995   2.244684
                   21
    21  O    0.000000
 Stoichiometry    C5H13NO2
 Framework group  C1[X(C5H13NO2)]
 Deg. of freedom    57
 Full point group                 C1      NOp   1
 Largest Abelian subgroup         C1      NOp   1
 Largest concise Abelian subgroup C1      NOp   1
                         Standard orientation:                         
 ---------------------------------------------------------------------
 Center     Atomic      Atomic             Coordinates (Angstroms)
 Number     Number       Type             X           Y           Z
 ---------------------------------------------------------------------
      1          6           0       -4.046347   -0.506030    0.090362
      2          1           0       -4.486430    0.481661    0.251339
      3          1           0       -3.991226   -1.005701    1.061006
      4          1           0       -4.731808   -1.077051   -0.538843
      5          6           0       -2.663884   -0.393777   -0.545339
      6          1           0       -2.259259   -1.394807   -0.729243
      7          1           0       -2.746786    0.088614   -1.525626
      8          6           0       -1.683890    0.390747    0.323766
      9          1           0       -1.590051   -0.096024    1.302208
     10          1           0       -2.083381    1.395542    0.511944
     11          6           0       -0.302587    0.502835   -0.311619
     12          1           0       -0.373880    0.997800   -1.284806
     13          1           0        0.111392   -0.493881   -0.487529
     14          7           0        0.687544    1.237684    0.491024
     15          1           0        2.176445    0.928563   -0.217846
     16          1           0        0.368200    2.182632    0.680371
     17          1           0        0.808404    0.771845    1.387228
     18          6           0        3.147855   -0.709390   -0.134710
     19          1           0        4.056777   -1.191844   -0.519649
     20          8           0        2.382229   -1.259164    0.617975
     21          8           0        3.020511    0.514484   -0.600785
 ---------------------------------------------------------------------
 Rotational constants (GHZ):      4.4068917      0.6235599      0.5873522

 **********************************************************************

            Population analysis using the SCF density.

 **********************************************************************

 Orbital symmetries:
       Occupied  (A) (A) (A) (A) (A) (A) (A) (A) (A) (A) (A) (A)
                 (A) (A) (A) (A) (A) (A) (A) (A) (A) (A) (A) (A)
                 (A) (A) (A) (A) (A) (A) (A) (A) (A)
       Virtual   (A) (A) (A) (A) (A) (A) (A) (A) (A) (A) (A) (A)
                 (A) (A) (A) (A) (A) (A) (A) (A) (A) (A) (A) (A)
                 (A) (A) (A) (A) (A) (A) (A) (A) (A) (A) (A) (A)
                 (A) (A) (A) (A) (A) (A) (A) (A) (A) (A) (A) (A)
                 (A) (A) (A) (A) (A) (A) (A) (A) (A) (A) (A) (A)
                 (A) (A) (A) (A) (A) (A) (A) (A) (A) (A) (A) (A)
                 (A) (A) (A) (A) (A) (A) (A) (A) (A) (A) (A) (A)
                 (A) (A) (A) (A) (A) (A) (A) (A) (A) (A) (A) (A)
                 (A) (A) (A) (A) (A) (A) (A) (A) (A) (A) (A) (A)
                 (A) (A) (A) (A) (A) (A) (A) (A) (A) (A) (A) (A)
                 (A) (A) (A) (A) (A) (A) (A) (A) (A) (A) (A) (A)
                 (A) (A) (A) (A) (A) (A) (A) (A) (A) (A) (A) (A)
                 (A) (A) (A) (A) (A) (A) (A) (A) (A) (A) (A) (A)
                 (A) (A) (A) (A) (A) (A) (A) (A) (A) (A) (A) (A)
                 (A) (A) (A) (A) (A) (A) (A) (A) (A) (A) (A) (A)
                 (A) (A)
 The electronic state is 1-A.
 Alpha  occ. eigenvalues --  -19.64181 -19.60617 -14.75999 -10.66225 -10.57170
 Alpha  occ. eigenvalues --  -10.54095 -10.53945 -10.52884  -1.22045  -1.12702
 Alpha  occ. eigenvalues --   -1.01946  -0.89984  -0.81423  -0.72928  -0.72227
 Alpha  occ. eigenvalues --   -0.67629  -0.60552  -0.58369  -0.56616  -0.54376
 Alpha  occ. eigenvalues --   -0.52857  -0.51569  -0.51235  -0.47867  -0.47023
 Alpha  occ. eigenvalues --   -0.44857  -0.42509  -0.42123  -0.40481  -0.39623
 Alpha  occ. eigenvalues --   -0.37912  -0.35463  -0.33552
 Alpha virt. eigenvalues --    0.00894   0.02047   0.02683   0.03419   0.04157
 Alpha virt. eigenvalues --    0.04649   0.05035   0.05777   0.06372   0.06534
 Alpha virt. eigenvalues --    0.07151   0.07854   0.08355   0.09913   0.10385
 Alpha virt. eigenvalues --    0.11033   0.12231   0.13615   0.14900   0.15494
 Alpha virt. eigenvalues --    0.16036   0.17446   0.18142   0.18946   0.19669
 Alpha virt. eigenvalues --    0.20770   0.21265   0.22068   0.22894   0.23085
 Alpha virt. eigenvalues --    0.23220   0.23992   0.24938   0.25444   0.25604
 Alpha virt. eigenvalues --    0.26411   0.26948   0.27855   0.29616   0.30171
 Alpha virt. eigenvalues --    0.30352   0.31033   0.31640   0.32298   0.32991
 Alpha virt. eigenvalues --    0.34319   0.34840   0.36166   0.37462   0.39167
 Alpha virt. eigenvalues --    0.42748   0.43436   0.44418   0.46132   0.47913
 Alpha virt. eigenvalues --    0.50672   0.52616   0.53405   0.54965   0.57020
 Alpha virt. eigenvalues --    0.58298   0.60743   0.60999   0.63830   0.64050
 Alpha virt. eigenvalues --    0.65998   0.67615   0.68194   0.70315   0.70516
 Alpha virt. eigenvalues --    0.72166   0.72522   0.73483   0.73693   0.74175
 Alpha virt. eigenvalues --    0.77930   0.78371   0.78678   0.79577   0.82173
 Alpha virt. eigenvalues --    0.87180   0.89064   0.90882   0.93369   1.01070
 Alpha virt. eigenvalues --    1.03944   1.05311   1.06651   1.13255   1.13980
 Alpha virt. eigenvalues --    1.17778   1.18927   1.19948   1.23449   1.24774
 Alpha virt. eigenvalues --    1.27760   1.34553   1.34886   1.40013   1.42493
 Alpha virt. eigenvalues --    1.44177   1.52684   1.54226   1.55539   1.56127
 Alpha virt. eigenvalues --    1.56581   1.59713   1.63063   1.63989   1.64981
 Alpha virt. eigenvalues --    1.69458   1.71939   1.74259   1.83796   1.85181
 Alpha virt. eigenvalues --    1.86010   1.87323   1.89432   1.95785   1.99042
 Alpha virt. eigenvalues --    2.09118   2.11271   2.14472   2.19894   2.20863
 Alpha virt. eigenvalues --    2.38838   2.41238   2.43792   2.53366   2.54288
 Alpha virt. eigenvalues --    2.54514   2.58919   2.59974   2.60338   2.64065
 Alpha virt. eigenvalues --    2.64645   2.66998   2.69226   2.75558   2.82474
 Alpha virt. eigenvalues --    2.85354   2.91061   2.94806   2.96042   3.00434
 Alpha virt. eigenvalues --    3.04999   3.08051   3.13021   3.15004   3.16620
 Alpha virt. eigenvalues --    3.21003   3.27272   3.28418   3.28911   3.30992
 Alpha virt. eigenvalues --    3.33388   3.36435   3.40323   3.43594   3.64582
 Alpha virt. eigenvalues --    3.67723   3.80321   3.90831   4.04480   4.08622
 Alpha virt. eigenvalues --    4.11627   4.18970   4.62310   5.10749   5.14162
 Alpha virt. eigenvalues --    5.24538   5.26732   5.58403   5.91530  23.53390
 Alpha virt. eigenvalues --   23.69632  23.76867  23.81466  23.87184  35.51453
 Alpha virt. eigenvalues --   49.98346  50.06546
          Condensed to atoms (all electrons):
              1          2          3          4          5          6
     1  C    6.189128   0.369579   0.371583   0.383189  -0.279797  -0.049184
     2  H    0.369579   0.466852  -0.038222  -0.025754   0.016205   0.006585
     3  H    0.371583  -0.038222   0.462434  -0.025240   0.008781  -0.008351
     4  H    0.383189  -0.025754  -0.025240   0.442923  -0.088038  -0.004007
     5  C   -0.279797   0.016205   0.008781  -0.088038   6.215397   0.441448
     6  H   -0.049184   0.006585  -0.008351  -0.004007   0.441448   0.462325
     7  H   -0.042115  -0.008955   0.006695  -0.003731   0.421562  -0.042113
     8  C    0.326449  -0.049584  -0.038015   0.052886  -0.704323  -0.077755
     9  H    0.004390  -0.000258   0.003332  -0.000223  -0.061229  -0.007894
    10  H   -0.001312   0.003518  -0.000373  -0.000252  -0.052139   0.006805
    11  C   -0.284710   0.007154   0.001140   0.004022   0.442624   0.011694
    12  H    0.008119   0.000038  -0.000034  -0.000023  -0.037024  -0.000370
    13  H    0.003272  -0.000045   0.000085  -0.000028  -0.036650   0.002916
    14  N    0.000147  -0.000399  -0.000212   0.000261  -0.025295  -0.001151
    15  H    0.000497   0.000000   0.000000   0.000000   0.001662   0.000007
    16  H    0.001725  -0.000001   0.000004  -0.000003   0.002937   0.000010
    17  H   -0.000144   0.000004   0.000008  -0.000003   0.003010   0.000011
    18  C   -0.000304  -0.000004   0.000010   0.000003  -0.001366  -0.000031
    19  H    0.000001   0.000000   0.000000   0.000000   0.000324  -0.000002
    20  O    0.000288  -0.000002   0.000007   0.000000   0.005148  -0.000354
    21  O   -0.000062   0.000000   0.000000   0.000000  -0.002236  -0.000002
              7          8          9         10         11         12
     1  C   -0.042115   0.326449   0.004390  -0.001312  -0.284710   0.008119
     2  H   -0.008955  -0.049584  -0.000258   0.003518   0.007154   0.000038
     3  H    0.006695  -0.038015   0.003332  -0.000373   0.001140  -0.000034
     4  H   -0.003731   0.052886  -0.000223  -0.000252   0.004022  -0.000023
     5  C    0.421562  -0.704323  -0.061229  -0.052139   0.442624  -0.037024
     6  H   -0.042113  -0.077755  -0.007894   0.006805   0.011694  -0.000370
     7  H    0.473366  -0.035211   0.006540  -0.008440  -0.024366   0.003422
     8  C   -0.035211   7.116171   0.468118   0.397226  -0.817647   0.029071
     9  H    0.006540   0.468118   0.463273  -0.046313  -0.081311   0.006021
    10  H   -0.008440   0.397226  -0.046313   0.482644  -0.011462  -0.010280
    11  C   -0.024366  -0.817647  -0.081311  -0.011462   6.427703   0.363957
    12  H    0.003422   0.029071   0.006021  -0.010280   0.363957   0.450551
    13  H    0.000032   0.011517  -0.008557   0.006097   0.379113  -0.036380
    14  N    0.000930  -0.161240  -0.000074  -0.009210   0.085010  -0.029686
    15  H    0.000000   0.028032  -0.000317  -0.000038  -0.034240  -0.002505
    16  H    0.000010  -0.022685  -0.001818   0.005632   0.025680  -0.009353
    17  H    0.000011  -0.028416   0.005223  -0.001759   0.005016   0.005018
    18  C    0.000064  -0.009133   0.000043  -0.000018  -0.004816  -0.000965
    19  H    0.000000  -0.000131  -0.000002   0.000000  -0.002412  -0.000026
    20  O    0.000045  -0.019553   0.000223  -0.000125   0.032440   0.000755
    21  O    0.000013   0.029324   0.000156   0.000028  -0.026741  -0.000198
             13         14         15         16         17         18
     1  C    0.003272   0.000147   0.000497   0.001725  -0.000144  -0.000304
     2  H   -0.000045  -0.000399   0.000000  -0.000001   0.000004  -0.000004
     3  H    0.000085  -0.000212   0.000000   0.000004   0.000008   0.000010
     4  H   -0.000028   0.000261   0.000000  -0.000003  -0.000003   0.000003
     5  C   -0.036650  -0.025295   0.001662   0.002937   0.003010  -0.001366
     6  H    0.002916  -0.001151   0.000007   0.000010   0.000011  -0.000031
     7  H    0.000032   0.000930   0.000000   0.000010   0.000011   0.000064
     8  C    0.011517  -0.161240   0.028032  -0.022685  -0.028416  -0.009133
     9  H   -0.008557  -0.000074  -0.000317  -0.001818   0.005223   0.000043
    10  H    0.006097  -0.009210  -0.000038   0.005632  -0.001759  -0.000018
    11  C    0.379113   0.085010  -0.034240   0.025680   0.005016  -0.004816
    12  H   -0.036380  -0.029686  -0.002505  -0.009353   0.005018  -0.000965
    13  H    0.429433  -0.040452   0.001107   0.005222  -0.008776   0.007890
    14  N   -0.040452   7.447684  -0.052793   0.281864   0.346368  -0.003828
    15  H    0.001107  -0.052793   0.277197   0.005974  -0.008471  -0.023614
    16  H    0.005222   0.281864   0.005974   0.381657  -0.039854   0.000983
    17  H   -0.008776   0.346368  -0.008471  -0.039854   0.329729   0.003811
    18  C    0.007890  -0.003828  -0.023614   0.000983   0.003811   5.005859
    19  H    0.000390   0.002641   0.010356   0.000104  -0.000358   0.446253
    20  O    0.001762  -0.004184   0.017123   0.003593  -0.008177   0.359570
    21  O   -0.000479   0.026919   0.209815  -0.001721  -0.002589   0.227707
             19         20         21
     1  C    0.000001   0.000288  -0.000062
     2  H    0.000000  -0.000002   0.000000
     3  H    0.000000   0.000007   0.000000
     4  H    0.000000   0.000000   0.000000
     5  C    0.000324   0.005148  -0.002236
     6  H   -0.000002  -0.000354  -0.000002
     7  H    0.000000   0.000045   0.000013
     8  C   -0.000131  -0.019553   0.029324
     9  H   -0.000002   0.000223   0.000156
    10  H    0.000000  -0.000125   0.000028
    11  C   -0.002412   0.032440  -0.026741
    12  H   -0.000026   0.000755  -0.000198
    13  H    0.000390   0.001762  -0.000479
    14  N    0.002641  -0.004184   0.026919
    15  H    0.010356   0.017123   0.209815
    16  H    0.000104   0.003593  -0.001721
    17  H   -0.000358  -0.008177  -0.002589
    18  C    0.446253   0.359570   0.227707
    19  H    0.529152  -0.063136  -0.129192
    20  O   -0.063136   8.134614  -0.127674
    21  O   -0.129192  -0.127674   8.183300
 Mulliken atomic charges:
              1
     1  C   -1.000740
     2  H    0.253289
     3  H    0.256367
     4  H    0.264020
     5  C   -0.271000
     6  H    0.259412
     7  H    0.252241
     8  C   -0.495100
     9  H    0.250677
    10  H    0.239774
    11  C   -0.497847
    12  H    0.259894
    13  H    0.282531
    14  N   -0.863301
    15  H    0.570211
    16  H    0.360041
    17  H    0.400338
    18  C   -0.008113
    19  H    0.206037
    20  O   -0.332365
    21  O   -0.386368
 Sum of Mulliken atomic charges =   0.00000
 Mulliken charges with hydrogens summed into heavy atoms:
              1
     1  C   -0.227064
     5  C    0.240653
     8  C   -0.004649
    11  C    0.044578
    14  N   -0.102921
    18  C    0.197924
    20  O   -0.332365
    21  O    0.183843
 Sum of Mulliken charges with hydrogens summed into heavy atoms =   0.00000
 Electronic spatial extent (au):  <R**2>=           1938.4807
 Charge=              0.0000 electrons
 Dipole moment (field-independent basis, Debye):
    X=             -2.3299    Y=              1.6925    Z=              0.0727  Tot=              2.8807
 Quadrupole moment (field-independent basis, Debye-Ang):
   XX=            -54.5409   YY=            -51.5198   ZZ=            -51.9015
   XY=             -1.0350   XZ=              0.2289   YZ=              4.1157
 Traceless Quadrupole moment (field-independent basis, Debye-Ang):
   XX=             -1.8868   YY=              1.1343   ZZ=              0.7525
   XY=             -1.0350   XZ=              0.2289   YZ=              4.1157
 Octapole moment (field-independent basis, Debye-Ang**2):
  XXX=             25.9646  YYY=             13.7935  ZZZ=              4.1704  XYY=              0.2200
  XXY=            -13.4739  XXZ=             -2.0273  XZZ=              3.7270  YZZ=              2.2190
  YYZ=             -0.9764  XYZ=             10.0722
 Hexadecapole moment (field-independent basis, Debye-Ang**3):
 XXXX=          -2113.4264 YYYY=           -257.2946 ZZZZ=           -148.5465 XXXY=            -70.3197
 XXXZ=             13.7932 YYYX=              5.0272 YYYZ=             10.7579 ZZZX=              4.8080
 ZZZY=             -0.3574 XXYY=           -410.2078 XXZZ=           -396.6140 YYZZ=            -69.8764
 XXYZ=             28.9520 YYXZ=             -7.2677 ZZXY=              2.0772
 N-N= 3.805812198442D+02 E-N=-1.703942175499D+03  KE= 4.020905179847D+02
 1\1\GINC-N0293\FOpt\RM062X\6-311+G(d)\C5H13N1O2\WAB665\08-Mar-2017\0\\
 # opt M062X/6-311+G* geom=connectivity\\Title Card Required\\0,1\C,-2.
 3032296934,-1.1146338395,0.1267655114\H,-1.9377595413,-2.1344129882,0.
 2737434513\H,-1.9957970861,-0.7938859647,-0.8719663835\H,-3.3943270529
 ,-1.1465680613,0.1443009974\C,-1.7528872996,-0.1751296684,1.1955850651
 \H,-2.1604274089,0.8308343303,1.0487857306\H,-2.0923390415,-0.50248477
 02,2.1845985847\C,-0.2277475581,-0.1047052668,1.1814265294\H,0.1149557
 77,0.2335732845,0.1959202548\H,0.1874349647,-1.1100366159,1.3282286195
 \C,0.3219707893,0.8340760627,2.2494962851\H,0.0005862372,0.5054704865,
 3.2424201647\H,-0.0729316878,1.8429795007,2.1014037401\N,1.788356751,0
 .9516445621,2.271574252\H,2.130360352,2.2693640663,3.2521493335\H,2.22
 03802206,0.0449097925,2.4197232383\H,2.1126574525,1.3001684225,1.37259
 96729\C,1.8704988057,4.1046755033,2.8076904379\H,1.9444165546,5.113314
 2349,3.2369490615\O,1.5235650419,3.8997339493,1.670762614\O,2.20331046
 31,3.1838960894,3.6867307292\\Version=EM64L-G09RevA.02\State=1-A\HF=-4
 03.501061\RMSD=3.977e-09\RMSF=1.423e-05\Dipole=-0.1791208,-1.1176149,-
 0.0581123\Quadrupole=1.4129256,0.7970626,-2.2099881,-2.2094986,-1.3948
 755,0.9460575\PG=C01 [X(C5H13N1O2)]\\@


 WISDOM IS KNOWING WHAT TO DO,
 SKILL IS KNOWING HOW TO DO IT,
 AND VIRTUE IS NOT DOING IT.
 Job cpu time:  0 days  5 hours 22 minutes 43.7 seconds.
 File lengths (MBytes):  RWF=    174 Int=      0 D2E=      0 Chk=      6 Scr=      4
 Normal termination of Gaussian 09 at Wed Mar  8 17:49:41 2017.
