 Entering Gaussian System, Link 0=g09
 Input=Ethene_B3LYP_3-21G.com
 Output=Ethene_B3LYP_3-21G.log
 Initial command:
 /sw/contrib/gaussian/g09/E01/g09/l1.exe "/scr/Gau-15893.inp" -scrdir="/scr/"
 Entering Link 1 = /sw/contrib/gaussian/g09/E01/g09/l1.exe PID=     15894.
  
 Copyright (c) 1988,1990,1992,1993,1995,1998,2003,2009,2015,
            Gaussian, Inc.  All Rights Reserved.
  
 This is part of the Gaussian(R) 09 program.  It is based on
 the Gaussian(R) 03 system (copyright 2003, Gaussian, Inc.),
 the Gaussian(R) 98 system (copyright 1998, Gaussian, Inc.),
 the Gaussian(R) 94 system (copyright 1995, Gaussian, Inc.),
 the Gaussian 92(TM) system (copyright 1992, Gaussian, Inc.),
 the Gaussian 90(TM) system (copyright 1990, Gaussian, Inc.),
 the Gaussian 88(TM) system (copyright 1988, Gaussian, Inc.),
 the Gaussian 86(TM) system (copyright 1986, Carnegie Mellon
 University), and the Gaussian 82(TM) system (copyright 1983,
 Carnegie Mellon University). Gaussian is a federally registered
 trademark of Gaussian, Inc.
  
 This software contains proprietary and confidential information,
 including trade secrets, belonging to Gaussian, Inc.
  
 This software is provided under written license and may be
 used, copied, transmitted, or stored only in accord with that
 written license.
  
 The following legend is applicable only to US Government
 contracts under FAR:
  
                    RESTRICTED RIGHTS LEGEND
  
 Use, reproduction and disclosure by the US Government is
 subject to restrictions as set forth in subparagraphs (a)
 and (c) of the Commercial Computer Software - Restricted
 Rights clause in FAR 52.227-19.
  
 Gaussian, Inc.
 340 Quinnipiac St., Bldg. 40, Wallingford CT 06492
  
  
 ---------------------------------------------------------------
 Warning -- This program may not be used in any manner that
 competes with the business of Gaussian, Inc. or will provide
 assistance to any competitor of Gaussian, Inc.  The licensee
 of this program is prohibited from giving any competitor of
 Gaussian, Inc. access to this program.  By using this program,
 the user acknowledges that Gaussian, Inc. is engaged in the
 business of creating and licensing software in the field of
 computational chemistry and represents and warrants to the
 licensee that it is not a competitor of Gaussian, Inc. and that
 it will not use this program in any manner prohibited above.
 ---------------------------------------------------------------
  

 Cite this work as:
 Gaussian 09, Revision E.01,
 M. J. Frisch, G. W. Trucks, H. B. Schlegel, G. E. Scuseria, 
 M. A. Robb, J. R. Cheeseman, G. Scalmani, V. Barone, B. Mennucci, 
 G. A. Petersson, H. Nakatsuji, M. Caricato, X. Li, H. P. Hratchian, 
 A. F. Izmaylov, J. Bloino, G. Zheng, J. L. Sonnenberg, M. Hada, 
 M. Ehara, K. Toyota, R. Fukuda, J. Hasegawa, M. Ishida, T. Nakajima, 
 Y. Honda, O. Kitao, H. Nakai, T. Vreven, J. A. Montgomery, Jr., 
 J. E. Peralta, F. Ogliaro, M. Bearpark, J. J. Heyd, E. Brothers, 
 K. N. Kudin, V. N. Staroverov, T. Keith, R. Kobayashi, J. Normand, 
 K. Raghavachari, A. Rendell, J. C. Burant, S. S. Iyengar, J. Tomasi, 
 M. Cossi, N. Rega, J. M. Millam, M. Klene, J. E. Knox, J. B. Cross, 
 V. Bakken, C. Adamo, J. Jaramillo, R. Gomperts, R. E. Stratmann, 
 O. Yazyev, A. J. Austin, R. Cammi, C. Pomelli, J. W. Ochterski, 
 R. L. Martin, K. Morokuma, V. G. Zakrzewski, G. A. Voth, 
 P. Salvador, J. J. Dannenberg, S. Dapprich, A. D. Daniels, 
 O. Farkas, J. B. Foresman, J. V. Ortiz, J. Cioslowski, 
 and D. J. Fox, Gaussian, Inc., Wallingford CT, 2013.
 
 ******************************************
 Gaussian 09:  ES64L-G09RevE.01 30-Nov-2015
                21-Feb-2017 
 ******************************************
 %NProcShared=8
 Will use up to    8 processors via shared memory.
 ------------------
 #n B3LYP/3-21G Opt
 ------------------
 1/14=-1,18=20,19=15,26=3,38=1/1,3;
 2/9=110,12=2,17=6,18=5,40=1/2;
 3/5=5,11=2,16=1,25=1,30=1,71=1,74=-5/1,2,3;
 4//1;
 5/5=2,38=5/2;
 6/7=2,8=2,9=2,10=2,28=1/1;
 7//1,2,3,16;
 1/14=-1,18=20,19=15,26=3/3(2);
 2/9=110/2;
 99//99;
 2/9=110/2;
 3/5=5,11=2,16=1,25=1,30=1,71=1,74=-5/1,2,3;
 4/5=5,16=3,69=1/1;
 5/5=2,38=5/2;
 7//1,2,3,16;
 1/14=-1,18=20,19=15,26=3/3(-5);
 2/9=110/2;
 6/7=2,8=2,9=2,10=2,19=2,28=1/1;
 99/9=1/99;
 ------------------
 Ethene B3LYP 3-21G
 ------------------
 Symbolic Z-matrix:
 Charge =  0 Multiplicity = 1
 C                    -7.65068   3.04127   0. 
 C                    -6.33127   2.92512   0. 
 H                    -8.2108    3.09095  -0.93056 
 H                    -8.21086   3.09021   0.93056 
 H                    -5.77109   2.87619  -0.93056 
 H                    -5.77115   2.87544   0.93056 
 

 GradGradGradGradGradGradGradGradGradGradGradGradGradGradGradGradGradGrad
 Berny optimization.
 Initialization pass.
                           ----------------------------
                           !    Initial Parameters    !
                           ! (Angstroms and Degrees)  !
 --------------------------                            --------------------------
 ! Name  Definition              Value          Derivative Info.                !
 --------------------------------------------------------------------------------
 ! R1    R(1,2)                  1.3245         estimate D2E/DX2                !
 ! R2    R(1,3)                  1.0873         estimate D2E/DX2                !
 ! R3    R(1,4)                  1.0873         estimate D2E/DX2                !
 ! R4    R(2,5)                  1.0873         estimate D2E/DX2                !
 ! R5    R(2,6)                  1.0873         estimate D2E/DX2                !
 ! A1    A(2,1,3)              121.1437         estimate D2E/DX2                !
 ! A2    A(2,1,4)              121.1435         estimate D2E/DX2                !
 ! A3    A(3,1,4)              117.7128         estimate D2E/DX2                !
 ! A4    A(1,2,5)              121.1435         estimate D2E/DX2                !
 ! A5    A(1,2,6)              121.1437         estimate D2E/DX2                !
 ! A6    A(5,2,6)              117.7128         estimate D2E/DX2                !
 ! D1    D(3,1,2,5)              0.0007         estimate D2E/DX2                !
 ! D2    D(3,1,2,6)            180.0            estimate D2E/DX2                !
 ! D3    D(4,1,2,5)           -179.9994         estimate D2E/DX2                !
 ! D4    D(4,1,2,6)             -0.0001         estimate D2E/DX2                !
 --------------------------------------------------------------------------------
 Trust Radius=3.00D-01 FncErr=1.00D-07 GrdErr=1.00D-06
 Number of steps in this run=     25 maximum allowed number of steps=    100.
 GradGradGradGradGradGradGradGradGradGradGradGradGradGradGradGradGradGrad

                          Input orientation:                          
 ---------------------------------------------------------------------
 Center     Atomic      Atomic             Coordinates (Angstroms)
 Number     Number       Type             X           Y           Z
 ---------------------------------------------------------------------
      1          6           0       -7.650680    3.041270    0.000000
      2          6           0       -6.331270    2.925120    0.000000
      3          1           0       -8.210800    3.090950   -0.930560
      4          1           0       -8.210860    3.090210    0.930560
      5          1           0       -5.771090    2.876190   -0.930560
      6          1           0       -5.771150    2.875440    0.930560
 ---------------------------------------------------------------------
                    Distance matrix (angstroms):
                    1          2          3          4          5
     1  C    0.000000
     2  C    1.324513   0.000000
     3  H    1.087265   2.103824   0.000000
     4  H    1.087262   2.103819   1.861120   0.000000
     5  H    2.103818   1.087262   2.449144   3.076045   0.000000
     6  H    2.103824   1.087265   3.076053   2.449145   1.861120
                    6
     6  H    0.000000
 Stoichiometry    C2H4
 Framework group  C1[X(C2H4)]
 Deg. of freedom    12
 Full point group                 C1      NOp   1
 Largest Abelian subgroup         C1      NOp   1
 Largest concise Abelian subgroup C1      NOp   1
                         Standard orientation:                         
 ---------------------------------------------------------------------
 Center     Atomic      Atomic             Coordinates (Angstroms)
 Number     Number       Type             X           Y           Z
 ---------------------------------------------------------------------
      1          6           0       -0.662256   -0.000001    0.000000
      2          6           0        0.662256    0.000001   -0.000002
      3          1           0       -1.224576    0.930558   -0.000002
      4          1           0       -1.224569   -0.930562    0.000003
      5          1           0        1.224568    0.930562    0.000006
      6          1           0        1.224576   -0.930558    0.000001
 ---------------------------------------------------------------------
 Rotational constants (GHZ):    144.7715521     30.4973425     25.1907084
 Standard basis: 3-21G (6D, 7F)
 There are    26 symmetry adapted cartesian basis functions of A   symmetry.
 There are    26 symmetry adapted basis functions of A   symmetry.
    26 basis functions,    42 primitive gaussians,    26 cartesian basis functions
     8 alpha electrons        8 beta electrons
       nuclear repulsion energy        33.4454879269 Hartrees.
 NAtoms=    6 NActive=    6 NUniq=    6 SFac= 1.00D+00 NAtFMM=   60 NAOKFM=F Big=F
 Integral buffers will be    131072 words long.
 Raffenetti 2 integral format.
 Two-electron integral symmetry is turned on.
 One-electron integrals computed using PRISM.
 NBasis=    26 RedAO= T EigKep=  1.56D-02  NBF=    26
 NBsUse=    26 1.00D-06 EigRej= -1.00D+00 NBFU=    26
 ExpMin= 1.83D-01 ExpMax= 1.72D+02 ExpMxC= 1.72D+02 IAcc=1 IRadAn=         1 AccDes= 0.00D+00
 Harris functional with IExCor=  402 and IRadAn=       1 diagonalized for initial guess.
 HarFok:  IExCor=  402 AccDes= 0.00D+00 IRadAn=         1 IDoV= 1 UseB2=F ITyADJ=14
 ICtDFT=  3500011 ScaDFX=  1.000000  1.000000  1.000000  1.000000
 FoFCou: FMM=F IPFlag=           0 FMFlag=      100000 FMFlg1=           0
         NFxFlg=           0 DoJE=T BraDBF=F KetDBF=T FulRan=T
         wScrn=  0.000000 ICntrl=     500 IOpCl=  0 I1Cent=   200000004 NGrid=           0
         NMat0=    1 NMatS0=      1 NMatT0=    0 NMatD0=    1 NMtDS0=    0 NMtDT0=    0
 Petite list used in FoFCou.
 Keep R1 ints in memory in canonical form, NReq=942556.
 Requested convergence on RMS density matrix=1.00D-08 within 128 cycles.
 Requested convergence on MAX density matrix=1.00D-06.
 Requested convergence on             energy=1.00D-06.
 No special actions if energy rises.
 Integral accuracy reduced to 1.0D-05 until final iterations.
 Initial convergence to 1.0D-05 achieved.  Increase integral accuracy.
 SCF Done:  E(RB3LYP) =  -78.1608657129     A.U. after   10 cycles
            NFock= 10  Conv=0.51D-08     -V/T= 2.0098

 **********************************************************************

            Population analysis using the SCF density.

 **********************************************************************

 Orbital symmetries:
       Occupied  (A) (A) (A) (A) (A) (A) (A) (A)
       Virtual   (A) (A) (A) (A) (A) (A) (A) (A) (A) (A) (A) (A)
                 (A) (A) (A) (A) (A) (A)
 The electronic state is 1-A.
 Alpha  occ. eigenvalues --  -10.11869 -10.11771  -0.76155  -0.57417  -0.47246
 Alpha  occ. eigenvalues --   -0.42049  -0.35313  -0.27140
 Alpha virt. eigenvalues --    0.02374   0.14200   0.15517   0.18040   0.27613
 Alpha virt. eigenvalues --    0.36828   0.66171   0.71989   0.73040   0.80178
 Alpha virt. eigenvalues --    0.83798   0.86856   1.01193   1.05611   1.08958
 Alpha virt. eigenvalues --    1.39762   1.39814   1.71126
          Condensed to atoms (all electrons):
               1          2          3          4          5          6
     1  C    5.143800   0.559604   0.382640   0.382640  -0.048155  -0.048154
     2  C    0.559604   5.143800  -0.048155  -0.048155   0.382640   0.382640
     3  H    0.382640  -0.048155   0.510414  -0.029121  -0.005309   0.003343
     4  H    0.382640  -0.048155  -0.029121   0.510414   0.003343  -0.005309
     5  H   -0.048155   0.382640  -0.005309   0.003343   0.510414  -0.029121
     6  H   -0.048154   0.382640   0.003343  -0.005309  -0.029121   0.510414
 Mulliken charges:
               1
     1  C   -0.372374
     2  C   -0.372375
     3  H    0.186187
     4  H    0.186187
     5  H    0.186188
     6  H    0.186187
 Sum of Mulliken charges =   0.00000
 Mulliken charges with hydrogens summed into heavy atoms:
               1
     1  C    0.000000
     2  C    0.000000
 Electronic spatial extent (au):  <R**2>=             81.9096
 Charge=              0.0000 electrons
 Dipole moment (field-independent basis, Debye):
    X=              0.0000    Y=              0.0000    Z=              0.0000  Tot=              0.0000
 Quadrupole moment (field-independent basis, Debye-Ang):
   XX=            -12.1028   YY=            -12.0657   ZZ=            -15.2752
   XY=              0.0000   XZ=              0.0000   YZ=              0.0000
 Traceless Quadrupole moment (field-independent basis, Debye-Ang):
   XX=              1.0451   YY=              1.0822   ZZ=             -2.1273
   XY=              0.0000   XZ=              0.0000   YZ=              0.0000
 Octapole moment (field-independent basis, Debye-Ang**2):
  XXX=              0.0000  YYY=              0.0000  ZZZ=              0.0000  XYY=              0.0000
  XXY=              0.0000  XXZ=              0.0000  XZZ=              0.0000  YZZ=              0.0000
  YYZ=              0.0000  XYZ=              0.0000
 Hexadecapole moment (field-independent basis, Debye-Ang**3):
 XXXX=            -64.8758 YYYY=            -25.2008 ZZZZ=            -15.5852 XXXY=             -0.0001
 XXXZ=              0.0000 YYYX=              0.0000 YYYZ=              0.0000 ZZZX=              0.0000
 ZZZY=              0.0000 XXYY=            -12.4811 XXZZ=            -14.4245 YYZZ=             -7.4269
 XXYZ=              0.0000 YYXZ=              0.0000 ZZXY=              0.0000
 N-N= 3.344548792691D+01 E-N=-2.472963109175D+02  KE= 7.740218789415D+01
 Calling FoFJK, ICntrl=      2127 FMM=F ISym2X=0 I1Cent= 0 IOpClX= 0 NMat=1 NMatS=1 NMatT=0.
 ***** Axes restored to original set *****
 -------------------------------------------------------------------
 Center     Atomic                   Forces (Hartrees/Bohr)
 Number     Number              X              Y              Z
 -------------------------------------------------------------------
      1        6          -0.004885591    0.000429786   -0.000000730
      2        6           0.004885403   -0.000429165    0.000000974
      3        1          -0.001592386    0.000139482    0.002283943
      4        1          -0.001593587    0.000141000   -0.002282527
      5        1           0.001593746   -0.000141745    0.002282307
      6        1           0.001592415   -0.000139358   -0.002283968
 -------------------------------------------------------------------
 Cartesian Forces:  Max     0.004885591 RMS     0.002097441

 GradGradGradGradGradGradGradGradGradGradGradGradGradGradGradGradGradGrad
 Berny optimization.
 FormGI is forming the generalized inverse of G from B-inverse, IUseBI=4.
 Internal  Forces:  Max     0.008102754 RMS     0.002674858
 Search for a local minimum.
 Step number   1 out of a maximum of   25
 All quantities printed in internal units (Hartrees-Bohrs-Radians)
 Mixed Optimization -- RFO/linear search
 Second derivative matrix not updated -- first step.
 The second derivative matrix:
                          R1        R2        R3        R4        R5
           R1           0.60821
           R2           0.00000   0.35131
           R3           0.00000   0.00000   0.35131
           R4           0.00000   0.00000   0.00000   0.35131
           R5           0.00000   0.00000   0.00000   0.00000   0.35131
           A1           0.00000   0.00000   0.00000   0.00000   0.00000
           A2           0.00000   0.00000   0.00000   0.00000   0.00000
           A3           0.00000   0.00000   0.00000   0.00000   0.00000
           A4           0.00000   0.00000   0.00000   0.00000   0.00000
           A5           0.00000   0.00000   0.00000   0.00000   0.00000
           A6           0.00000   0.00000   0.00000   0.00000   0.00000
           D1           0.00000   0.00000   0.00000   0.00000   0.00000
           D2           0.00000   0.00000   0.00000   0.00000   0.00000
           D3           0.00000   0.00000   0.00000   0.00000   0.00000
           D4           0.00000   0.00000   0.00000   0.00000   0.00000
                          A1        A2        A3        A4        A5
           A1           0.16000
           A2           0.00000   0.16000
           A3           0.00000   0.00000   0.16000
           A4           0.00000   0.00000   0.00000   0.16000
           A5           0.00000   0.00000   0.00000   0.00000   0.16000
           A6           0.00000   0.00000   0.00000   0.00000   0.00000
           D1           0.00000   0.00000   0.00000   0.00000   0.00000
           D2           0.00000   0.00000   0.00000   0.00000   0.00000
           D3           0.00000   0.00000   0.00000   0.00000   0.00000
           D4           0.00000   0.00000   0.00000   0.00000   0.00000
                          A6        D1        D2        D3        D4
           A6           0.16000
           D1           0.00000   0.03087
           D2           0.00000   0.00000   0.03087
           D3           0.00000   0.00000   0.00000   0.03087
           D4           0.00000   0.00000   0.00000   0.00000   0.03087
 ITU=  0
     Eigenvalues ---    0.03087   0.03087   0.03087   0.16000   0.16000
     Eigenvalues ---    0.16000   0.16000   0.35131   0.35131   0.35131
     Eigenvalues ---    0.35131   0.60821
 RFO step:  Lambda=-3.50504911D-04 EMin= 3.08730960D-02
 Linear search not attempted -- first point.
 Iteration  1 RMS(Cart)=  0.01469309 RMS(Int)=  0.00006456
 Iteration  2 RMS(Cart)=  0.00006398 RMS(Int)=  0.00000000
 Iteration  3 RMS(Cart)=  0.00000000 RMS(Int)=  0.00000000
 Variable       Old X    -DE/DX   Delta X   Delta X   Delta X     New X
                                 (Linear)    (Quad)   (Total)
    R1        2.50297   0.00810   0.00000   0.01331   0.01331   2.51628
    R2        2.05463  -0.00113   0.00000  -0.00321  -0.00321   2.05142
    R3        2.05463  -0.00113   0.00000  -0.00320  -0.00320   2.05143
    R4        2.05463  -0.00113   0.00000  -0.00320  -0.00320   2.05143
    R5        2.05463  -0.00113   0.00000  -0.00321  -0.00321   2.05142
    A1        2.11436   0.00175   0.00000   0.01089   0.01089   2.12524
    A2        2.11435   0.00175   0.00000   0.01089   0.01089   2.12524
    A3        2.05448  -0.00349   0.00000  -0.02178  -0.02178   2.03270
    A4        2.11435   0.00175   0.00000   0.01089   0.01089   2.12524
    A5        2.11436   0.00175   0.00000   0.01089   0.01089   2.12524
    A6        2.05448  -0.00349   0.00000  -0.02178  -0.02178   2.03270
    D1        0.00001   0.00000   0.00000  -0.00001  -0.00001   0.00000
    D2        3.14159   0.00000   0.00000   0.00000   0.00000  -3.14159
    D3       -3.14158   0.00000   0.00000  -0.00001  -0.00001   3.14159
    D4        0.00000   0.00000   0.00000   0.00000   0.00000   0.00000
         Item               Value     Threshold  Converged?
 Maximum Force            0.008103     0.000450     NO 
 RMS     Force            0.002675     0.000300     NO 
 Maximum Displacement     0.023967     0.001800     NO 
 RMS     Displacement     0.014681     0.001200     NO 
 Predicted change in Energy=-1.755406D-04
 GradGradGradGradGradGradGradGradGradGradGradGradGradGradGradGradGradGrad

                          Input orientation:                          
 ---------------------------------------------------------------------
 Center     Atomic      Atomic             Coordinates (Angstroms)
 Number     Number       Type             X           Y           Z
 ---------------------------------------------------------------------
      1          6           0       -7.654189    3.041580    0.000001
      2          6           0       -6.327760    2.924816   -0.000001
      3          1           0       -8.223479    3.092065   -0.922938
      4          1           0       -8.223543    3.091326    0.922941
      5          1           0       -5.758408    2.875066   -0.922941
      6          1           0       -5.758471    2.874328    0.922938
 ---------------------------------------------------------------------
                    Distance matrix (angstroms):
                    1          2          3          4          5
     1  C    0.000000
     2  C    1.331558   0.000000
     3  H    1.085567   2.115073   0.000000
     4  H    1.085567   2.115074   1.845880   0.000000
     5  H    2.115074   1.085567   2.474604   3.087222   0.000000
     6  H    2.115073   1.085567   3.087221   2.474604   1.845880
                    6
     6  H    0.000000
 Stoichiometry    C2H4
 Framework group  C1[X(C2H4)]
 Deg. of freedom    12
 Full point group                 C1      NOp   1
 Largest Abelian subgroup         C1      NOp   1
 Largest concise Abelian subgroup C1      NOp   1
                         Standard orientation:                         
 ---------------------------------------------------------------------
 Center     Atomic      Atomic             Coordinates (Angstroms)
 Number     Number       Type             X           Y           Z
 ---------------------------------------------------------------------
      1          6           0       -0.665779    0.000000    0.000000
      2          6           0        0.665779    0.000000    0.000001
      3          1           0       -1.237301    0.922940   -0.000001
      4          1           0       -1.237303   -0.922939   -0.000001
      5          1           0        1.237303    0.922940   -0.000002
      6          1           0        1.237301   -0.922940   -0.000001
 ---------------------------------------------------------------------
 Rotational constants (GHZ):    147.1720327     30.0644210     24.9646269
 Standard basis: 3-21G (6D, 7F)
 There are    26 symmetry adapted cartesian basis functions of A   symmetry.
 There are    26 symmetry adapted basis functions of A   symmetry.
    26 basis functions,    42 primitive gaussians,    26 cartesian basis functions
     8 alpha electrons        8 beta electrons
       nuclear repulsion energy        33.3545191773 Hartrees.
 NAtoms=    6 NActive=    6 NUniq=    6 SFac= 1.00D+00 NAtFMM=   60 NAOKFM=F Big=F
 Integral buffers will be    131072 words long.
 Raffenetti 2 integral format.
 Two-electron integral symmetry is turned on.
 One-electron integrals computed using PRISM.
 NBasis=    26 RedAO= T EigKep=  1.61D-02  NBF=    26
 NBsUse=    26 1.00D-06 EigRej= -1.00D+00 NBFU=    26
 Initial guess from the checkpoint file:  "/scr/Gau-15894.chk"
 B after Tr=     0.000000    0.000000    0.000000
         Rot=    1.000000    0.000000    0.000000    0.000001 Ang=   0.00 deg.
 ExpMin= 1.83D-01 ExpMax= 1.72D+02 ExpMxC= 1.72D+02 IAcc=1 IRadAn=         1 AccDes= 0.00D+00
 Harris functional with IExCor=  402 and IRadAn=       1 diagonalized for initial guess.
 HarFok:  IExCor=  402 AccDes= 0.00D+00 IRadAn=         1 IDoV= 1 UseB2=F ITyADJ=14
 ICtDFT=  3500011 ScaDFX=  1.000000  1.000000  1.000000  1.000000
 FoFCou: FMM=F IPFlag=           0 FMFlag=      100000 FMFlg1=           0
         NFxFlg=           0 DoJE=T BraDBF=F KetDBF=T FulRan=T
         wScrn=  0.000000 ICntrl=     500 IOpCl=  0 I1Cent=   200000004 NGrid=           0
         NMat0=    1 NMatS0=      1 NMatT0=    0 NMatD0=    1 NMtDS0=    0 NMtDT0=    0
 Petite list used in FoFCou.
 Keep R1 ints in memory in canonical form, NReq=942556.
 Requested convergence on RMS density matrix=1.00D-08 within 128 cycles.
 Requested convergence on MAX density matrix=1.00D-06.
 Requested convergence on             energy=1.00D-06.
 No special actions if energy rises.
 Integral accuracy reduced to 1.0D-05 until final iterations.
 Initial convergence to 1.0D-05 achieved.  Increase integral accuracy.
 SCF Done:  E(RB3LYP) =  -78.1610407336     A.U. after    9 cycles
            NFock=  9  Conv=0.63D-08     -V/T= 2.0100
 Calling FoFJK, ICntrl=      2127 FMM=F ISym2X=0 I1Cent= 0 IOpClX= 0 NMat=1 NMatS=1 NMatT=0.
 ***** Axes restored to original set *****
 -------------------------------------------------------------------
 Center     Atomic                   Forces (Hartrees/Bohr)
 Number     Number              X              Y              Z
 -------------------------------------------------------------------
      1        6           0.002946820   -0.000259461   -0.000000035
      2        6          -0.002946887    0.000259101    0.000000019
      3        1          -0.000363324    0.000031988    0.000081686
      4        1          -0.000363155    0.000032077   -0.000081786
      5        1           0.000363190   -0.000031860    0.000081804
      6        1           0.000363356   -0.000031846   -0.000081689
 -------------------------------------------------------------------
 Cartesian Forces:  Max     0.002946887 RMS     0.001001692

 GradGradGradGradGradGradGradGradGradGradGradGradGradGradGradGradGradGrad
 Berny optimization.
 Using GEDIIS/GDIIS optimizer.
 FormGI is forming the generalized inverse of G from B-inverse, IUseBI=4.
 Internal  Forces:  Max     0.002228921 RMS     0.000617929
 Search for a local minimum.
 Step number   2 out of a maximum of   25
 All quantities printed in internal units (Hartrees-Bohrs-Radians)
 Mixed Optimization -- En-DIIS/RFO-DIIS
 Update second derivatives using D2CorX and points    1    2
 DE= -1.75D-04 DEPred=-1.76D-04 R= 9.97D-01
 TightC=F SS=  1.41D+00  RLast= 4.05D-02 DXNew= 5.0454D-01 1.2154D-01
 Trust test= 9.97D-01 RLast= 4.05D-02 DXMaxT set to 3.00D-01
 The second derivative matrix:
                          R1        R2        R3        R4        R5
           R1           0.72560
           R2          -0.01082   0.35214
           R3          -0.01080   0.00084   0.35214
           R4          -0.01080   0.00084   0.00083   0.35214
           R5          -0.01082   0.00084   0.00084   0.00084   0.35214
           A1           0.00407   0.00024   0.00024   0.00024   0.00024
           A2           0.00408   0.00024   0.00024   0.00024   0.00024
           A3          -0.00814  -0.00048  -0.00047  -0.00047  -0.00047
           A4           0.00408   0.00024   0.00024   0.00024   0.00024
           A5           0.00407   0.00024   0.00024   0.00024   0.00024
           A6          -0.00814  -0.00048  -0.00047  -0.00047  -0.00048
           D1          -0.00001   0.00000   0.00000   0.00000   0.00000
           D2           0.00000   0.00000   0.00000   0.00000   0.00000
           D3          -0.00001   0.00000   0.00000   0.00000   0.00000
           D4           0.00000   0.00000   0.00000   0.00000   0.00000
                          A1        A2        A3        A4        A5
           A1           0.15779
           A2          -0.00221   0.15779
           A3           0.00442   0.00442   0.15116
           A4          -0.00221  -0.00221   0.00442   0.15779
           A5          -0.00221  -0.00221   0.00442  -0.00221   0.15779
           A6           0.00442   0.00442  -0.00884   0.00442   0.00442
           D1           0.00000   0.00000   0.00000   0.00000   0.00000
           D2           0.00000   0.00000   0.00000   0.00000   0.00000
           D3           0.00000   0.00000   0.00000   0.00000   0.00000
           D4           0.00000   0.00000   0.00000   0.00000   0.00000
                          A6        D1        D2        D3        D4
           A6           0.15116
           D1           0.00000   0.03087
           D2           0.00000   0.00000   0.03087
           D3           0.00000   0.00000   0.00000   0.03087
           D4           0.00000   0.00000   0.00000   0.00000   0.03087
 ITU=  1  0
 Use linear search instead of GDIIS.
     Eigenvalues ---    0.03087   0.03087   0.03087   0.13312   0.16000
     Eigenvalues ---    0.16000   0.16000   0.35131   0.35131   0.35131
     Eigenvalues ---    0.35342   0.72719
 RFO step:  Lambda=-1.27327798D-05 EMin= 3.08730959D-02
 Quartic linear search produced a step of  0.00086.
 Iteration  1 RMS(Cart)=  0.00147399 RMS(Int)=  0.00000193
 Iteration  2 RMS(Cart)=  0.00000193 RMS(Int)=  0.00000000
 Iteration  3 RMS(Cart)=  0.00000000 RMS(Int)=  0.00000000
 Variable       Old X    -DE/DX   Delta X   Delta X   Delta X     New X
                                 (Linear)    (Quad)   (Total)
    R1        2.51628  -0.00223   0.00001  -0.00320  -0.00319   2.51309
    R2        2.05142   0.00012   0.00000   0.00024   0.00023   2.05166
    R3        2.05143   0.00012   0.00000   0.00024   0.00023   2.05166
    R4        2.05143   0.00012   0.00000   0.00024   0.00023   2.05166
    R5        2.05142   0.00012   0.00000   0.00024   0.00023   2.05166
    A1        2.12524   0.00024   0.00001   0.00190   0.00190   2.12715
    A2        2.12524   0.00024   0.00001   0.00189   0.00190   2.12715
    A3        2.03270  -0.00048  -0.00002  -0.00379  -0.00381   2.02889
    A4        2.12524   0.00024   0.00001   0.00189   0.00190   2.12715
    A5        2.12524   0.00024   0.00001   0.00190   0.00190   2.12715
    A6        2.03270  -0.00048  -0.00002  -0.00379  -0.00381   2.02889
    D1        0.00000   0.00000   0.00000   0.00000   0.00000   0.00000
    D2       -3.14159   0.00000   0.00000   0.00000   0.00000   3.14159
    D3        3.14159   0.00000   0.00000   0.00001   0.00001  -3.14159
    D4        0.00000   0.00000   0.00000   0.00000   0.00000   0.00000
         Item               Value     Threshold  Converged?
 Maximum Force            0.002229     0.000450     NO 
 RMS     Force            0.000618     0.000300     NO 
 Maximum Displacement     0.001862     0.001800     NO 
 RMS     Displacement     0.001475     0.001200     NO 
 Predicted change in Energy=-6.366275D-06
 GradGradGradGradGradGradGradGradGradGradGradGradGradGradGradGradGradGrad

                          Input orientation:                          
 ---------------------------------------------------------------------
 Center     Atomic      Atomic             Coordinates (Angstroms)
 Number     Number       Type             X           Y           Z
 ---------------------------------------------------------------------
      1          6           0       -7.653350    3.041505    0.000001
      2          6           0       -6.328600    2.924888   -0.000001
      3          1           0       -8.224454    3.092151   -0.921953
      4          1           0       -8.224517    3.091413    0.921956
      5          1           0       -5.757433    2.874981   -0.921956
      6          1           0       -5.757496    2.874243    0.921953
 ---------------------------------------------------------------------
                    Distance matrix (angstroms):
                    1          2          3          4          5
     1  C    0.000000
     2  C    1.329872   0.000000
     3  H    1.085691   2.114766   0.000000
     4  H    1.085691   2.114766   1.843909   0.000000
     5  H    2.114766   1.085691   2.476561   3.087613   0.000000
     6  H    2.114766   1.085691   3.087613   2.476561   1.843909
                    6
     6  H    0.000000
 Stoichiometry    C2H4
 Framework group  C1[X(C2H4)]
 Deg. of freedom    12
 Full point group                 C1      NOp   1
 Largest Abelian subgroup         C1      NOp   1
 Largest concise Abelian subgroup C1      NOp   1
                         Standard orientation:                         
 ---------------------------------------------------------------------
 Center     Atomic      Atomic             Coordinates (Angstroms)
 Number     Number       Type             X           Y           Z
 ---------------------------------------------------------------------
      1          6           0       -0.664936    0.000000    0.000000
      2          6           0        0.664936    0.000000    0.000000
      3          1           0       -1.238280    0.921955    0.000001
      4          1           0       -1.238281   -0.921955    0.000000
      5          1           0        1.238281    0.921955    0.000000
      6          1           0        1.238280   -0.921955    0.000001
 ---------------------------------------------------------------------
 Rotational constants (GHZ):    147.4867457     30.0951390     24.9948587
 Standard basis: 3-21G (6D, 7F)
 There are    26 symmetry adapted cartesian basis functions of A   symmetry.
 There are    26 symmetry adapted basis functions of A   symmetry.
    26 basis functions,    42 primitive gaussians,    26 cartesian basis functions
     8 alpha electrons        8 beta electrons
       nuclear repulsion energy        33.3724337568 Hartrees.
 NAtoms=    6 NActive=    6 NUniq=    6 SFac= 1.00D+00 NAtFMM=   60 NAOKFM=F Big=F
 Integral buffers will be    131072 words long.
 Raffenetti 2 integral format.
 Two-electron integral symmetry is turned on.
 One-electron integrals computed using PRISM.
 NBasis=    26 RedAO= T EigKep=  1.60D-02  NBF=    26
 NBsUse=    26 1.00D-06 EigRej= -1.00D+00 NBFU=    26
 Initial guess from the checkpoint file:  "/scr/Gau-15894.chk"
 B after Tr=     0.000000    0.000000    0.000000
         Rot=    1.000000    0.000000    0.000000    0.000000 Ang=   0.00 deg.
 Keep R1 ints in memory in canonical form, NReq=942556.
 Requested convergence on RMS density matrix=1.00D-08 within 128 cycles.
 Requested convergence on MAX density matrix=1.00D-06.
 Requested convergence on             energy=1.00D-06.
 No special actions if energy rises.
 SCF Done:  E(RB3LYP) =  -78.1610485159     A.U. after    6 cycles
            NFock=  6  Conv=0.92D-09     -V/T= 2.0099
 Calling FoFJK, ICntrl=      2127 FMM=F ISym2X=0 I1Cent= 0 IOpClX= 0 NMat=1 NMatS=1 NMatT=0.
 ***** Axes restored to original set *****
 -------------------------------------------------------------------
 Center     Atomic                   Forces (Hartrees/Bohr)
 Number     Number              X              Y              Z
 -------------------------------------------------------------------
      1        6           0.000705575   -0.000062020    0.000000008
      2        6          -0.000705564    0.000062197   -0.000000018
      3        1          -0.000115449    0.000010127   -0.000039197
      4        1          -0.000115419    0.000010106    0.000039169
      5        1           0.000115411   -0.000010181   -0.000039158
      6        1           0.000115446   -0.000010229    0.000039197
 -------------------------------------------------------------------
 Cartesian Forces:  Max     0.000705575 RMS     0.000243039

 GradGradGradGradGradGradGradGradGradGradGradGradGradGradGradGradGradGrad
 Berny optimization.
 Using GEDIIS/GDIIS optimizer.
 FormGI is forming the generalized inverse of G from B-inverse, IUseBI=4.
 Internal  Forces:  Max     0.000476542 RMS     0.000140637
 Search for a local minimum.
 Step number   3 out of a maximum of   25
 All quantities printed in internal units (Hartrees-Bohrs-Radians)
 Mixed Optimization -- En-DIIS/RFO-DIIS
 Swapping is turned off.
 Update second derivatives using D2CorX and points    1    2    3
 DE= -7.78D-06 DEPred=-6.37D-06 R= 1.22D+00
 TightC=F SS=  1.41D+00  RLast= 7.34D-03 DXNew= 5.0454D-01 2.2020D-02
 Trust test= 1.22D+00 RLast= 7.34D-03 DXMaxT set to 3.00D-01
 The second derivative matrix:
                          R1        R2        R3        R4        R5
           R1           0.64556
           R2           0.00363   0.35154
           R3           0.00364   0.00024   0.35155
           R4           0.00364   0.00024   0.00024   0.35155
           R5           0.00363   0.00024   0.00024   0.00024   0.35154
           A1           0.01317  -0.00186  -0.00186  -0.00186  -0.00186
           A2           0.01318  -0.00186  -0.00186  -0.00186  -0.00186
           A3          -0.02635   0.00372   0.00372   0.00372   0.00372
           A4           0.01318  -0.00186  -0.00186  -0.00186  -0.00186
           A5           0.01317  -0.00186  -0.00186  -0.00186  -0.00186
           A6          -0.02635   0.00372   0.00372   0.00372   0.00372
           D1           0.00000   0.00000   0.00000   0.00000   0.00000
           D2           0.00002   0.00000   0.00000   0.00000   0.00000
           D3          -0.00002   0.00000   0.00000   0.00000   0.00000
           D4           0.00000   0.00000   0.00000   0.00000   0.00000
                          A1        A2        A3        A4        A5
           A1           0.15682
           A2          -0.00318   0.15682
           A3           0.00636   0.00636   0.14728
           A4          -0.00318  -0.00318   0.00636   0.15682
           A5          -0.00318  -0.00318   0.00636  -0.00318   0.15682
           A6           0.00636   0.00636  -0.01272   0.00636   0.00636
           D1           0.00000   0.00000   0.00000   0.00000   0.00000
           D2           0.00000   0.00000   0.00000   0.00000   0.00000
           D3           0.00000   0.00000   0.00000   0.00000   0.00000
           D4           0.00000   0.00000   0.00000   0.00000   0.00000
                          A6        D1        D2        D3        D4
           A6           0.14728
           D1           0.00000   0.03087
           D2           0.00000   0.00000   0.03087
           D3           0.00000   0.00000   0.00000   0.03087
           D4           0.00000   0.00000   0.00000   0.00000   0.03087
 ITU=  1  1  0
     Eigenvalues ---    0.03087   0.03087   0.03087   0.11712   0.16000
     Eigenvalues ---    0.16000   0.16000   0.35131   0.35131   0.35131
     Eigenvalues ---    0.35290   0.64963
 En-DIIS/RFO-DIIS IScMMF=        0 using points:     3    2
 RFO step:  Lambda=-4.76296804D-07.
 DidBck=F Rises=F RFO-DIIS coefs:    1.28459   -0.28459
 Iteration  1 RMS(Cart)=  0.00042398 RMS(Int)=  0.00000018
 Iteration  2 RMS(Cart)=  0.00000018 RMS(Int)=  0.00000000
 Variable       Old X    -DE/DX   Delta X   Delta X   Delta X     New X
                                 (Linear)    (Quad)   (Total)
    R1        2.51309  -0.00048  -0.00091   0.00003  -0.00088   2.51221
    R2        2.05166   0.00009   0.00007   0.00025   0.00031   2.05197
    R3        2.05166   0.00009   0.00007   0.00025   0.00031   2.05197
    R4        2.05166   0.00009   0.00007   0.00025   0.00031   2.05197
    R5        2.05166   0.00009   0.00007   0.00025   0.00031   2.05197
    A1        2.12715   0.00005   0.00054   0.00001   0.00055   2.12770
    A2        2.12715   0.00005   0.00054   0.00001   0.00055   2.12770
    A3        2.02889  -0.00011  -0.00108  -0.00002  -0.00110   2.02779
    A4        2.12715   0.00005   0.00054   0.00001   0.00055   2.12770
    A5        2.12715   0.00005   0.00054   0.00001   0.00055   2.12770
    A6        2.02889  -0.00011  -0.00108  -0.00002  -0.00110   2.02779
    D1        0.00000   0.00000   0.00000   0.00000   0.00000   0.00000
    D2        3.14159   0.00000   0.00000   0.00000   0.00000  -3.14159
    D3       -3.14159   0.00000   0.00000   0.00000   0.00000   3.14159
    D4        0.00000   0.00000   0.00000   0.00000   0.00000   0.00000
         Item               Value     Threshold  Converged?
 Maximum Force            0.000477     0.000450     NO 
 RMS     Force            0.000141     0.000300     YES
 Maximum Displacement     0.000681     0.001800     YES
 RMS     Displacement     0.000424     0.001200     YES
 Predicted change in Energy=-4.441552D-07
 GradGradGradGradGradGradGradGradGradGradGradGradGradGradGradGradGradGrad

                          Input orientation:                          
 ---------------------------------------------------------------------
 Center     Atomic      Atomic             Coordinates (Angstroms)
 Number     Number       Type             X           Y           Z
 ---------------------------------------------------------------------
      1          6           0       -7.653118    3.041485    0.000001
      2          6           0       -6.328832    2.924909   -0.000001
      3          1           0       -8.224814    3.092182   -0.921778
      4          1           0       -8.224877    3.091444    0.921780
      5          1           0       -5.757073    2.874948   -0.921780
      6          1           0       -5.757136    2.874211    0.921778
 ---------------------------------------------------------------------
                    Distance matrix (angstroms):
                    1          2          3          4          5
     1  C    0.000000
     2  C    1.329407   0.000000
     3  H    1.085856   2.114805   0.000000
     4  H    1.085856   2.114805   1.843558   0.000000
     5  H    2.114805   1.085856   2.477285   3.087984   0.000000
     6  H    2.114805   1.085856   3.087984   2.477285   1.843558
                    6
     6  H    0.000000
 Stoichiometry    C2H4
 Framework group  CS[SG(C2),X(H4)]
 Deg. of freedom     7
 Full point group                 CS      NOp   2
 Omega: Change in point group or standard orientation.

 Old FWG=C01  [X(C2H4)]
 New FWG=CS   [SG(C2),X(H4)]
 Largest Abelian subgroup         CS      NOp   2
 Largest concise Abelian subgroup CS      NOp   2
                         Standard orientation:                         
 ---------------------------------------------------------------------
 Center     Atomic      Atomic             Coordinates (Angstroms)
 Number     Number       Type             X           Y           Z
 ---------------------------------------------------------------------
      1          6           0        0.000000    0.664703    0.000000
      2          6           0        0.000000   -0.664703    0.000000
      3          1           0       -0.000001    1.238642   -0.921779
      4          1           0       -0.000001    1.238642    0.921779
      5          1           0       -0.000001   -1.238642   -0.921779
      6          1           0       -0.000001   -1.238642    0.921779
 ---------------------------------------------------------------------
 Rotational constants (GHZ):    147.5429160     30.1019818     25.0011919
 Standard basis: 3-21G (6D, 7F)
 There are    18 symmetry adapted cartesian basis functions of A'  symmetry.
 There are     8 symmetry adapted cartesian basis functions of A"  symmetry.
 There are    18 symmetry adapted basis functions of A'  symmetry.
 There are     8 symmetry adapted basis functions of A"  symmetry.
    26 basis functions,    42 primitive gaussians,    26 cartesian basis functions
     8 alpha electrons        8 beta electrons
       nuclear repulsion energy        33.3755033424 Hartrees.
 NAtoms=    6 NActive=    6 NUniq=    4 SFac= 2.25D+00 NAtFMM=   60 NAOKFM=F Big=F
 Integral buffers will be    131072 words long.
 Raffenetti 2 integral format.
 Two-electron integral symmetry is turned on.
 One-electron integrals computed using PRISM.
 NBasis=    26 RedAO= T EigKep=  2.26D-02  NBF=    18     8
 NBsUse=    26 1.00D-06 EigRej= -1.00D+00 NBFU=    18     8
 Initial guess from the checkpoint file:  "/scr/Gau-15894.chk"
 B after Tr=     0.000000    0.000000    0.000000
         Rot=    0.500000    0.500000   -0.500000    0.500000 Ang= 120.00 deg.
 Initial guess orbital symmetries:
       Occupied  (A') (A') (A') (A') (A") (A') (A") (A')
       Virtual   (A') (A') (A') (A') (A') (A') (A') (A') (A') (A')
                 (A') (A') (A") (A") (A") (A") (A") (A")
 Keep R1 ints in memory in symmetry-blocked form, NReq=943592.
 Requested convergence on RMS density matrix=1.00D-08 within 128 cycles.
 Requested convergence on MAX density matrix=1.00D-06.
 Requested convergence on             energy=1.00D-06.
 No special actions if energy rises.
 SCF Done:  E(RB3LYP) =  -78.1610489572     A.U. after    5 cycles
            NFock=  5  Conv=0.31D-08     -V/T= 2.0099
 Calling FoFJK, ICntrl=      2127 FMM=F ISym2X=1 I1Cent= 0 IOpClX= 0 NMat=1 NMatS=1 NMatT=0.
 ***** Axes restored to original set *****
 -------------------------------------------------------------------
 Center     Atomic                   Forces (Hartrees/Bohr)
 Number     Number              X              Y              Z
 -------------------------------------------------------------------
      1        6          -0.000003955    0.000000258    0.000000000
      2        6           0.000003934   -0.000000447    0.000000000
      3        1           0.000001845   -0.000000117    0.000001875
      4        1           0.000001845   -0.000000115   -0.000001875
      5        1          -0.000001835    0.000000210    0.000001876
      6        1          -0.000001835    0.000000211   -0.000001876
 -------------------------------------------------------------------
 Cartesian Forces:  Max     0.000003955 RMS     0.000001812

 GradGradGradGradGradGradGradGradGradGradGradGradGradGradGradGradGradGrad
 Berny optimization.
 Using GEDIIS/GDIIS optimizer.
 FormGI is forming the generalized inverse of G from B-inverse, IUseBI=4.
 Internal  Forces:  Max     0.000002569 RMS     0.000001375
 Search for a local minimum.
 Step number   4 out of a maximum of   25
 All quantities printed in internal units (Hartrees-Bohrs-Radians)
 Mixed Optimization -- En-DIIS/RFO-DIIS
 Swapping is turned off.
 Update second derivatives using D2CorX and points    1    2    3    4
 DE= -4.41D-07 DEPred=-4.44D-07 R= 9.93D-01
 Trust test= 9.93D-01 RLast= 2.19D-03 DXMaxT set to 3.00D-01
 The second derivative matrix:
                          R1        R2        R3        R4        R5
           R1           0.64659
           R2           0.00421   0.35150
           R3           0.00422   0.00019   0.35150
           R4           0.00422   0.00019   0.00019   0.35150
           R5           0.00421   0.00019   0.00019   0.00019   0.35150
           A1           0.01316  -0.00138  -0.00138  -0.00138  -0.00138
           A2           0.01317  -0.00138  -0.00138  -0.00138  -0.00138
           A3          -0.02632   0.00277   0.00277   0.00277   0.00277
           A4           0.01317  -0.00138  -0.00138  -0.00138  -0.00138
           A5           0.01316  -0.00138  -0.00138  -0.00138  -0.00138
           A6          -0.02632   0.00277   0.00277   0.00277   0.00277
           D1           0.00000   0.00000   0.00000   0.00000   0.00000
           D2          -0.00002   0.00001   0.00001   0.00001   0.00001
           D3           0.00002  -0.00001  -0.00001  -0.00001  -0.00001
           D4           0.00000   0.00000   0.00000   0.00000   0.00000
                          A1        A2        A3        A4        A5
           A1           0.15679
           A2          -0.00321   0.15679
           A3           0.00642   0.00642   0.14715
           A4          -0.00321  -0.00321   0.00642   0.15679
           A5          -0.00321  -0.00321   0.00642  -0.00321   0.15679
           A6           0.00642   0.00642  -0.01285   0.00642   0.00642
           D1           0.00000   0.00000   0.00000   0.00000   0.00000
           D2           0.00000   0.00000  -0.00001   0.00000   0.00000
           D3           0.00000   0.00000   0.00001   0.00000   0.00000
           D4           0.00000   0.00000   0.00000   0.00000   0.00000
                          A6        D1        D2        D3        D4
           A6           0.14715
           D1           0.00000   0.03087
           D2          -0.00001   0.00000   0.03087
           D3           0.00001   0.00000   0.00000   0.03087
           D4           0.00000   0.00000   0.00000   0.00000   0.03087
 ITU=  0  1  1  0
     Eigenvalues ---    0.03087   0.03087   0.03087   0.11708   0.16000
     Eigenvalues ---    0.16000   0.16000   0.35131   0.35131   0.35131
     Eigenvalues ---    0.35234   0.65071
 En-DIIS/RFO-DIIS IScMMF=        0 using points:     4    3    2
 RFO step:  Lambda= 0.00000000D+00.
 DidBck=F Rises=F RFO-DIIS coefs:    0.97100    0.03605   -0.00705
 Iteration  1 RMS(Cart)=  0.00000516 RMS(Int)=  0.00000000
 Iteration  2 RMS(Cart)=  0.00000000 RMS(Int)=  0.00000001
 ClnCor:  largest displacement from symmetrization is 6.21D-09 for atom     4.
 Variable       Old X    -DE/DX   Delta X   Delta X   Delta X     New X
                                 (Linear)    (Quad)   (Total)
    R1        2.51221   0.00000   0.00000   0.00000   0.00000   2.51222
    R2        2.05197   0.00000  -0.00001   0.00000  -0.00001   2.05196
    R3        2.05197   0.00000  -0.00001   0.00000  -0.00001   2.05196
    R4        2.05197   0.00000  -0.00001   0.00000  -0.00001   2.05196
    R5        2.05197   0.00000  -0.00001   0.00000  -0.00001   2.05196
    A1        2.12770   0.00000   0.00000   0.00000   0.00000   2.12769
    A2        2.12770   0.00000   0.00000   0.00000   0.00000   2.12769
    A3        2.02779   0.00000   0.00001   0.00000   0.00001   2.02780
    A4        2.12770   0.00000   0.00000   0.00000   0.00000   2.12769
    A5        2.12770   0.00000   0.00000   0.00000   0.00000   2.12769
    A6        2.02779   0.00000   0.00001   0.00000   0.00001   2.02780
    D1        0.00000   0.00000   0.00000   0.00000   0.00000   0.00000
    D2       -3.14159   0.00000   0.00000   0.00000   0.00000   3.14159
    D3        3.14159   0.00000   0.00000   0.00000   0.00000  -3.14159
    D4        0.00000   0.00000   0.00000   0.00000   0.00000   0.00000
         Item               Value     Threshold  Converged?
 Maximum Force            0.000003     0.000450     YES
 RMS     Force            0.000001     0.000300     YES
 Maximum Displacement     0.000010     0.001800     YES
 RMS     Displacement     0.000005     0.001200     YES
 Predicted change in Energy=-4.776483D-11
 Optimization completed.
    -- Stationary point found.
                           ----------------------------
                           !   Optimized Parameters   !
                           ! (Angstroms and Degrees)  !
 --------------------------                            --------------------------
 ! Name  Definition              Value          Derivative Info.                !
 --------------------------------------------------------------------------------
 ! R1    R(1,2)                  1.3294         -DE/DX =    0.0                 !
 ! R2    R(1,3)                  1.0859         -DE/DX =    0.0                 !
 ! R3    R(1,4)                  1.0859         -DE/DX =    0.0                 !
 ! R4    R(2,5)                  1.0859         -DE/DX =    0.0                 !
 ! R5    R(2,6)                  1.0859         -DE/DX =    0.0                 !
 ! A1    A(2,1,3)              121.9082         -DE/DX =    0.0                 !
 ! A2    A(2,1,4)              121.9082         -DE/DX =    0.0                 !
 ! A3    A(3,1,4)              116.1837         -DE/DX =    0.0                 !
 ! A4    A(1,2,5)              121.9082         -DE/DX =    0.0                 !
 ! A5    A(1,2,6)              121.9082         -DE/DX =    0.0                 !
 ! A6    A(5,2,6)              116.1837         -DE/DX =    0.0                 !
 ! D1    D(3,1,2,5)              0.0            -DE/DX =    0.0                 !
 ! D2    D(3,1,2,6)            180.0001         -DE/DX =    0.0                 !
 ! D3    D(4,1,2,5)           -180.0001         -DE/DX =    0.0                 !
 ! D4    D(4,1,2,6)              0.0            -DE/DX =    0.0                 !
 --------------------------------------------------------------------------------
 GradGradGradGradGradGradGradGradGradGradGradGradGradGradGradGradGradGrad

                          Input orientation:                          
 ---------------------------------------------------------------------
 Center     Atomic      Atomic             Coordinates (Angstroms)
 Number     Number       Type             X           Y           Z
 ---------------------------------------------------------------------
      1          6           0       -7.653118    3.041485    0.000001
      2          6           0       -6.328832    2.924909   -0.000001
      3          1           0       -8.224814    3.092182   -0.921778
      4          1           0       -8.224877    3.091444    0.921780
      5          1           0       -5.757073    2.874948   -0.921780
      6          1           0       -5.757136    2.874211    0.921778
 ---------------------------------------------------------------------
                    Distance matrix (angstroms):
                    1          2          3          4          5
     1  C    0.000000
     2  C    1.329407   0.000000
     3  H    1.085856   2.114805   0.000000
     4  H    1.085856   2.114805   1.843558   0.000000
     5  H    2.114805   1.085856   2.477285   3.087984   0.000000
     6  H    2.114805   1.085856   3.087984   2.477285   1.843558
                    6
     6  H    0.000000
 Stoichiometry    C2H4
 Framework group  CS[SG(C2),X(H4)]
 Deg. of freedom     7
 Full point group                 CS      NOp   2
 Largest Abelian subgroup         CS      NOp   2
 Largest concise Abelian subgroup CS      NOp   2
                         Standard orientation:                         
 ---------------------------------------------------------------------
 Center     Atomic      Atomic             Coordinates (Angstroms)
 Number     Number       Type             X           Y           Z
 ---------------------------------------------------------------------
      1          6           0        0.000000    0.664703    0.000000
      2          6           0        0.000000   -0.664703    0.000000
      3          1           0       -0.000001    1.238642   -0.921779
      4          1           0       -0.000001    1.238642    0.921779
      5          1           0       -0.000001   -1.238642   -0.921779
      6          1           0       -0.000001   -1.238642    0.921779
 ---------------------------------------------------------------------
 Rotational constants (GHZ):    147.5429160     30.1019818     25.0011919

 **********************************************************************

            Population analysis using the SCF density.

 **********************************************************************

 Orbital symmetries:
       Occupied  (A') (A') (A') (A') (A") (A') (A") (A')
       Virtual   (A') (A') (A") (A') (A") (A') (A') (A") (A') (A')
                 (A') (A') (A") (A") (A') (A") (A') (A')
 The electronic state is 1-A'.
 Alpha  occ. eigenvalues --  -10.11959 -10.11859  -0.75990  -0.57698  -0.46968
 Alpha  occ. eigenvalues --   -0.42344  -0.35250  -0.27064
 Alpha virt. eigenvalues --    0.02226   0.14486   0.15486   0.17957   0.27586
 Alpha virt. eigenvalues --    0.36864   0.66704   0.71149   0.73087   0.80091
 Alpha virt. eigenvalues --    0.83308   0.87322   1.01145   1.05915   1.09034
 Alpha virt. eigenvalues --    1.37668   1.39940   1.70484
          Condensed to atoms (all electrons):
               1          2          3          4          5          6
     1  C    5.138271   0.564946   0.381519   0.381519  -0.046463  -0.046463
     2  C    0.564946   5.138271  -0.046463  -0.046463   0.381519   0.381519
     3  H    0.381519  -0.046463   0.511123  -0.030985  -0.005092   0.003233
     4  H    0.381519  -0.046463  -0.030985   0.511123   0.003233  -0.005092
     5  H   -0.046463   0.381519  -0.005092   0.003233   0.511123  -0.030985
     6  H   -0.046463   0.381519   0.003233  -0.005092  -0.030985   0.511123
 Mulliken charges:
               1
     1  C   -0.373329
     2  C   -0.373329
     3  H    0.186665
     4  H    0.186665
     5  H    0.186665
     6  H    0.186665
 Sum of Mulliken charges =   0.00000
 Mulliken charges with hydrogens summed into heavy atoms:
               1
     1  C    0.000000
     2  C    0.000000
 Electronic spatial extent (au):  <R**2>=             82.2832
 Charge=              0.0000 electrons
 Dipole moment (field-independent basis, Debye):
    X=              0.0000    Y=              0.0000    Z=              0.0000  Tot=              0.0000
 Quadrupole moment (field-independent basis, Debye-Ang):
   XX=            -15.2790   YY=            -11.9729   ZZ=            -12.1537
   XY=              0.0000   XZ=              0.0000   YZ=              0.0000
 Traceless Quadrupole moment (field-independent basis, Debye-Ang):
   XX=             -2.1438   YY=              1.1623   ZZ=              0.9815
   XY=              0.0000   XZ=              0.0000   YZ=              0.0000
 Octapole moment (field-independent basis, Debye-Ang**2):
  XXX=              0.0000  YYY=              0.0000  ZZZ=              0.0000  XYY=              0.0000
  XXY=              0.0000  XXZ=              0.0000  XZZ=              0.0000  YZZ=              0.0000
  YYZ=              0.0000  XYZ=              0.0000
 Hexadecapole moment (field-independent basis, Debye-Ang**3):
 XXXX=            -15.5946 YYYY=            -65.1196 ZZZZ=            -25.1430 XXXY=              0.0000
 XXXZ=              0.0000 YYYX=              0.0000 YYYZ=              0.0000 ZZZX=              0.0000
 ZZZY=              0.0000 XXYY=            -14.5433 XXZZ=             -7.3895 YYZZ=            -12.5494
 XXYZ=              0.0000 YYXZ=              0.0000 ZZXY=              0.0000
 N-N= 3.337550334236D+01 E-N=-2.471435271227D+02  KE= 7.739150072764D+01
 Symmetry A'   KE= 7.343588157884D+01
 Symmetry A"   KE= 3.955619148796D+00
 1\1\GINC-N0288\FOpt\RB3LYP\3-21G\C2H4\GDAVIDS3\21-Feb-2017\0\\#n B3LYP
 /3-21G Opt\\Ethene B3LYP 3-21G\\0,1\C,-7.6531177563,3.0414851172,0.000
 0006568\C,-6.3288321519,2.9249092559,-0.0000006568\H,-8.224814298,3.09
 21819792,-0.9217777832\H,-8.2248774038,3.0914443324,0.9217802305\H,-5.
 7570726486,2.8749484816,-0.9217802372\H,-5.7571357544,2.8742108348,0.9
 217777886\\Version=ES64L-G09RevE.01\State=1-A'\HF=-78.161049\RMSD=3.13
 4e-09\RMSF=1.812e-06\Dipole=-0.0000001,-0.0000009,0.\Quadrupole=0.8452
 071,-1.5749312,0.7297241,-0.2147068,-0.000082,-0.0009295\PG=CS [SG(C2)
 ,X(H4)]\\@


 10 WHATSOEVER THY HAND FINDETH TO DO, DO IT WITH THY  
 MIGHT. FOR THERE IS NO WORK, NOR DEVICE, NOR KNOWLEDGE, NOR  
 WISDOM, IN THE GRAVE, WHITHER THOU GOEST.                    
 11 I RETURNED AND SAW UNDER THE SUN, THAT THE RACE IS NOT TO 
 THE SWIFT, NOR THE BATTLE TO THE STRONG, NEITHER YET BREAD TO
 THE WISE, NOR YET RICHES TO MEN OF UNDERSTANDING, NOR YET    
 FAVOR TO MEN OF SKILL. BUT TIME AND CHANCE HAPPEN TO THEM ALL.
 12 FOR MAN ALSO KNOWETH NOT HIS TIME. AS THE FISHES   
 THAT ARE TAKEN IN AN EVIL NET, AND AS THE BIRDS THAT ARE     
 CAUGHT IN THE SNARE. SO ARE THE SONS OF MEN SNARED IN AN EVIL
 TIME, WHEN IT FALLETH SUDDENLY UPON THEM.
                                         ECCLESIASTES 9
 Job cpu time:       0 days  0 hours  0 minutes 30.1 seconds.
 File lengths (MBytes):  RWF=      5 Int=      0 D2E=      0 Chk=      1 Scr=      1
 Normal termination of Gaussian 09 at Tue Feb 21 18:08:45 2017.
