 Entering Gaussian System, Link 0=g09
 Input=Ethene_B3LYP_6-31Gdp.com
 Output=Ethene_B3LYP_6-31Gdp.log
 Initial command:
 /sw/contrib/gaussian/g09/E01/g09/l1.exe "/scr/Gau-18872.inp" -scrdir="/scr/"
 Entering Link 1 = /sw/contrib/gaussian/g09/E01/g09/l1.exe PID=     18873.
  
 Copyright (c) 1988,1990,1992,1993,1995,1998,2003,2009,2015,
            Gaussian, Inc.  All Rights Reserved.
  
 This is part of the Gaussian(R) 09 program.  It is based on
 the Gaussian(R) 03 system (copyright 2003, Gaussian, Inc.),
 the Gaussian(R) 98 system (copyright 1998, Gaussian, Inc.),
 the Gaussian(R) 94 system (copyright 1995, Gaussian, Inc.),
 the Gaussian 92(TM) system (copyright 1992, Gaussian, Inc.),
 the Gaussian 90(TM) system (copyright 1990, Gaussian, Inc.),
 the Gaussian 88(TM) system (copyright 1988, Gaussian, Inc.),
 the Gaussian 86(TM) system (copyright 1986, Carnegie Mellon
 University), and the Gaussian 82(TM) system (copyright 1983,
 Carnegie Mellon University). Gaussian is a federally registered
 trademark of Gaussian, Inc.
  
 This software contains proprietary and confidential information,
 including trade secrets, belonging to Gaussian, Inc.
  
 This software is provided under written license and may be
 used, copied, transmitted, or stored only in accord with that
 written license.
  
 The following legend is applicable only to US Government
 contracts under FAR:
  
                    RESTRICTED RIGHTS LEGEND
  
 Use, reproduction and disclosure by the US Government is
 subject to restrictions as set forth in subparagraphs (a)
 and (c) of the Commercial Computer Software - Restricted
 Rights clause in FAR 52.227-19.
  
 Gaussian, Inc.
 340 Quinnipiac St., Bldg. 40, Wallingford CT 06492
  
  
 ---------------------------------------------------------------
 Warning -- This program may not be used in any manner that
 competes with the business of Gaussian, Inc. or will provide
 assistance to any competitor of Gaussian, Inc.  The licensee
 of this program is prohibited from giving any competitor of
 Gaussian, Inc. access to this program.  By using this program,
 the user acknowledges that Gaussian, Inc. is engaged in the
 business of creating and licensing software in the field of
 computational chemistry and represents and warrants to the
 licensee that it is not a competitor of Gaussian, Inc. and that
 it will not use this program in any manner prohibited above.
 ---------------------------------------------------------------
  

 Cite this work as:
 Gaussian 09, Revision E.01,
 M. J. Frisch, G. W. Trucks, H. B. Schlegel, G. E. Scuseria, 
 M. A. Robb, J. R. Cheeseman, G. Scalmani, V. Barone, B. Mennucci, 
 G. A. Petersson, H. Nakatsuji, M. Caricato, X. Li, H. P. Hratchian, 
 A. F. Izmaylov, J. Bloino, G. Zheng, J. L. Sonnenberg, M. Hada, 
 M. Ehara, K. Toyota, R. Fukuda, J. Hasegawa, M. Ishida, T. Nakajima, 
 Y. Honda, O. Kitao, H. Nakai, T. Vreven, J. A. Montgomery, Jr., 
 J. E. Peralta, F. Ogliaro, M. Bearpark, J. J. Heyd, E. Brothers, 
 K. N. Kudin, V. N. Staroverov, T. Keith, R. Kobayashi, J. Normand, 
 K. Raghavachari, A. Rendell, J. C. Burant, S. S. Iyengar, J. Tomasi, 
 M. Cossi, N. Rega, J. M. Millam, M. Klene, J. E. Knox, J. B. Cross, 
 V. Bakken, C. Adamo, J. Jaramillo, R. Gomperts, R. E. Stratmann, 
 O. Yazyev, A. J. Austin, R. Cammi, C. Pomelli, J. W. Ochterski, 
 R. L. Martin, K. Morokuma, V. G. Zakrzewski, G. A. Voth, 
 P. Salvador, J. J. Dannenberg, S. Dapprich, A. D. Daniels, 
 O. Farkas, J. B. Foresman, J. V. Ortiz, J. Cioslowski, 
 and D. J. Fox, Gaussian, Inc., Wallingford CT, 2013.
 
 ******************************************
 Gaussian 09:  ES64L-G09RevE.01 30-Nov-2015
                21-Feb-2017 
 ******************************************
 %NProcShared=8
 Will use up to    8 processors via shared memory.
 -----------------------
 #n B3LYP/6-31G(d,p) Opt
 -----------------------
 1/14=-1,18=20,19=15,26=3,38=1/1,3;
 2/9=110,12=2,17=6,18=5,40=1/2;
 3/5=1,6=6,7=101,11=2,16=1,25=1,30=1,71=1,74=-5/1,2,3;
 4//1;
 5/5=2,38=5/2;
 6/7=2,8=2,9=2,10=2,28=1/1;
 7//1,2,3,16;
 1/14=-1,18=20,19=15,26=3/3(2);
 2/9=110/2;
 99//99;
 2/9=110/2;
 3/5=1,6=6,7=101,11=2,16=1,25=1,30=1,71=1,74=-5/1,2,3;
 4/5=5,16=3,69=1/1;
 5/5=2,38=5/2;
 7//1,2,3,16;
 1/14=-1,18=20,19=15,26=3/3(-5);
 2/9=110/2;
 6/7=2,8=2,9=2,10=2,19=2,28=1/1;
 99/9=1/99;
 --------------------
 Ethene B3LYP 6-31Gdp
 --------------------
 Symbolic Z-matrix:
 Charge =  0 Multiplicity = 1
 C                    -7.65068   3.04127   0. 
 C                    -6.33127   2.92512   0. 
 H                    -8.2108    3.09095  -0.93056 
 H                    -8.21086   3.09021   0.93056 
 H                    -5.77109   2.87619  -0.93056 
 H                    -5.77115   2.87544   0.93056 
 

 GradGradGradGradGradGradGradGradGradGradGradGradGradGradGradGradGradGrad
 Berny optimization.
 Initialization pass.
                           ----------------------------
                           !    Initial Parameters    !
                           ! (Angstroms and Degrees)  !
 --------------------------                            --------------------------
 ! Name  Definition              Value          Derivative Info.                !
 --------------------------------------------------------------------------------
 ! R1    R(1,2)                  1.3245         estimate D2E/DX2                !
 ! R2    R(1,3)                  1.0873         estimate D2E/DX2                !
 ! R3    R(1,4)                  1.0873         estimate D2E/DX2                !
 ! R4    R(2,5)                  1.0873         estimate D2E/DX2                !
 ! R5    R(2,6)                  1.0873         estimate D2E/DX2                !
 ! A1    A(2,1,3)              121.1437         estimate D2E/DX2                !
 ! A2    A(2,1,4)              121.1435         estimate D2E/DX2                !
 ! A3    A(3,1,4)              117.7128         estimate D2E/DX2                !
 ! A4    A(1,2,5)              121.1435         estimate D2E/DX2                !
 ! A5    A(1,2,6)              121.1437         estimate D2E/DX2                !
 ! A6    A(5,2,6)              117.7128         estimate D2E/DX2                !
 ! D1    D(3,1,2,5)              0.0007         estimate D2E/DX2                !
 ! D2    D(3,1,2,6)            180.0            estimate D2E/DX2                !
 ! D3    D(4,1,2,5)           -179.9994         estimate D2E/DX2                !
 ! D4    D(4,1,2,6)             -0.0001         estimate D2E/DX2                !
 --------------------------------------------------------------------------------
 Trust Radius=3.00D-01 FncErr=1.00D-07 GrdErr=1.00D-06
 Number of steps in this run=     25 maximum allowed number of steps=    100.
 GradGradGradGradGradGradGradGradGradGradGradGradGradGradGradGradGradGrad

                          Input orientation:                          
 ---------------------------------------------------------------------
 Center     Atomic      Atomic             Coordinates (Angstroms)
 Number     Number       Type             X           Y           Z
 ---------------------------------------------------------------------
      1          6           0       -7.650680    3.041270    0.000000
      2          6           0       -6.331270    2.925120    0.000000
      3          1           0       -8.210800    3.090950   -0.930560
      4          1           0       -8.210860    3.090210    0.930560
      5          1           0       -5.771090    2.876190   -0.930560
      6          1           0       -5.771150    2.875440    0.930560
 ---------------------------------------------------------------------
                    Distance matrix (angstroms):
                    1          2          3          4          5
     1  C    0.000000
     2  C    1.324513   0.000000
     3  H    1.087265   2.103824   0.000000
     4  H    1.087262   2.103819   1.861120   0.000000
     5  H    2.103818   1.087262   2.449144   3.076045   0.000000
     6  H    2.103824   1.087265   3.076053   2.449145   1.861120
                    6
     6  H    0.000000
 Stoichiometry    C2H4
 Framework group  C1[X(C2H4)]
 Deg. of freedom    12
 Full point group                 C1      NOp   1
 Largest Abelian subgroup         C1      NOp   1
 Largest concise Abelian subgroup C1      NOp   1
                         Standard orientation:                         
 ---------------------------------------------------------------------
 Center     Atomic      Atomic             Coordinates (Angstroms)
 Number     Number       Type             X           Y           Z
 ---------------------------------------------------------------------
      1          6           0       -0.662256   -0.000001    0.000000
      2          6           0        0.662256    0.000001   -0.000002
      3          1           0       -1.224576    0.930558   -0.000002
      4          1           0       -1.224569   -0.930562    0.000003
      5          1           0        1.224568    0.930562    0.000006
      6          1           0        1.224576   -0.930558    0.000001
 ---------------------------------------------------------------------
 Rotational constants (GHZ):    144.7715521     30.4973425     25.1907084
 Standard basis: 6-31G(d,p) (6D, 7F)
 There are    50 symmetry adapted cartesian basis functions of A   symmetry.
 There are    50 symmetry adapted basis functions of A   symmetry.
    50 basis functions,    84 primitive gaussians,    50 cartesian basis functions
     8 alpha electrons        8 beta electrons
       nuclear repulsion energy        33.4454879269 Hartrees.
 NAtoms=    6 NActive=    6 NUniq=    6 SFac= 1.00D+00 NAtFMM=   60 NAOKFM=F Big=F
 Integral buffers will be    131072 words long.
 Raffenetti 2 integral format.
 Two-electron integral symmetry is turned on.
 One-electron integrals computed using PRISM.
 NBasis=    50 RedAO= T EigKep=  6.75D-03  NBF=    50
 NBsUse=    50 1.00D-06 EigRej= -1.00D+00 NBFU=    50
 ExpMin= 1.61D-01 ExpMax= 3.05D+03 ExpMxC= 4.57D+02 IAcc=1 IRadAn=         1 AccDes= 0.00D+00
 Harris functional with IExCor=  402 and IRadAn=       1 diagonalized for initial guess.
 HarFok:  IExCor=  402 AccDes= 0.00D+00 IRadAn=         1 IDoV= 1 UseB2=F ITyADJ=14
 ICtDFT=  3500011 ScaDFX=  1.000000  1.000000  1.000000  1.000000
 FoFCou: FMM=F IPFlag=           0 FMFlag=      100000 FMFlg1=           0
         NFxFlg=           0 DoJE=T BraDBF=F KetDBF=T FulRan=T
         wScrn=  0.000000 ICntrl=     500 IOpCl=  0 I1Cent=   200000004 NGrid=           0
         NMat0=    1 NMatS0=      1 NMatT0=    0 NMatD0=    1 NMtDS0=    0 NMtDT0=    0
 Petite list used in FoFCou.
 Keep R1 ints in memory in canonical form, NReq=1709344.
 Requested convergence on RMS density matrix=1.00D-08 within 128 cycles.
 Requested convergence on MAX density matrix=1.00D-06.
 Requested convergence on             energy=1.00D-06.
 No special actions if energy rises.
 Integral accuracy reduced to 1.0D-05 until final iterations.
 Initial convergence to 1.0D-05 achieved.  Increase integral accuracy.
 SCF Done:  E(RB3LYP) =  -78.5936567179     A.U. after   10 cycles
            NFock= 10  Conv=0.40D-08     -V/T= 2.0102

 **********************************************************************

            Population analysis using the SCF density.

 **********************************************************************

 Orbital symmetries:
       Occupied  (A) (A) (A) (A) (A) (A) (A) (A)
       Virtual   (A) (A) (A) (A) (A) (A) (A) (A) (A) (A) (A) (A)
                 (A) (A) (A) (A) (A) (A) (A) (A) (A) (A) (A) (A)
                 (A) (A) (A) (A) (A) (A) (A) (A) (A) (A) (A) (A)
                 (A) (A) (A) (A) (A) (A)
 The electronic state is 1-A.
 Alpha  occ. eigenvalues --  -10.18327 -10.18233  -0.75677  -0.57421  -0.46664
 Alpha  occ. eigenvalues --   -0.41341  -0.35228  -0.26829
 Alpha virt. eigenvalues --    0.01902   0.12037   0.14071   0.15935   0.24480
 Alpha virt. eigenvalues --    0.33065   0.47081   0.54752   0.56977   0.63840
 Alpha virt. eigenvalues --    0.65123   0.70504   0.82925   0.84506   0.91150
 Alpha virt. eigenvalues --    0.91955   1.10610   1.20835   1.38207   1.39555
 Alpha virt. eigenvalues --    1.52837   1.83743   1.88154   1.97082   2.02092
 Alpha virt. eigenvalues --    2.04219   2.13780   2.22401   2.35931   2.45064
 Alpha virt. eigenvalues --    2.51398   2.61379   2.68738   2.69120   2.74921
 Alpha virt. eigenvalues --    3.00291   3.17351   3.33587   3.48612   3.75710
 Alpha virt. eigenvalues --    4.17940   4.50064
          Condensed to atoms (all electrons):
               1          2          3          4          5          6
     1  C    4.816100   0.680335   0.388472   0.388472  -0.036109  -0.036108
     2  C    0.680335   4.816100  -0.036108  -0.036109   0.388472   0.388472
     3  H    0.388472  -0.036108   0.595947  -0.044144  -0.010338   0.005591
     4  H    0.388472  -0.036109  -0.044144   0.595947   0.005591  -0.010338
     5  H   -0.036109   0.388472  -0.010338   0.005591   0.595947  -0.044144
     6  H   -0.036108   0.388472   0.005591  -0.010338  -0.044144   0.595947
 Mulliken charges:
               1
     1  C   -0.201161
     2  C   -0.201161
     3  H    0.100581
     4  H    0.100581
     5  H    0.100581
     6  H    0.100581
 Sum of Mulliken charges =   0.00000
 Mulliken charges with hydrogens summed into heavy atoms:
               1
     1  C    0.000000
     2  C    0.000000
 Electronic spatial extent (au):  <R**2>=             81.7108
 Charge=              0.0000 electrons
 Dipole moment (field-independent basis, Debye):
    X=              0.0000    Y=              0.0000    Z=              0.0000  Tot=              0.0000
 Quadrupole moment (field-independent basis, Debye-Ang):
   XX=            -12.1413   YY=            -12.0641   ZZ=            -14.9709
   XY=              0.0000   XZ=              0.0000   YZ=              0.0000
 Traceless Quadrupole moment (field-independent basis, Debye-Ang):
   XX=              0.9175   YY=              0.9947   ZZ=             -1.9121
   XY=              0.0000   XZ=              0.0000   YZ=              0.0000
 Octapole moment (field-independent basis, Debye-Ang**2):
  XXX=              0.0000  YYY=              0.0000  ZZZ=              0.0000  XYY=              0.0000
  XXY=              0.0000  XXZ=              0.0000  XZZ=              0.0000  YZZ=              0.0000
  YYZ=              0.0000  XYZ=              0.0000
 Hexadecapole moment (field-independent basis, Debye-Ang**3):
 XXXX=            -66.5446 YYYY=            -26.4691 ZZZZ=            -15.4420 XXXY=              0.0000
 XXXZ=              0.0000 YYYX=              0.0000 YYYZ=              0.0000 ZZZX=              0.0000
 ZZZY=              0.0000 XXYY=            -13.2397 XXZZ=            -14.4593 YYZZ=             -7.6004
 XXYZ=              0.0000 YYXZ=              0.0000 ZZXY=              0.0000
 N-N= 3.344548792691D+01 E-N=-2.483169625008D+02  KE= 7.779696055396D+01
 Calling FoFJK, ICntrl=      2127 FMM=F ISym2X=0 I1Cent= 0 IOpClX= 0 NMat=1 NMatS=1 NMatT=0.
 ***** Axes restored to original set *****
 -------------------------------------------------------------------
 Center     Atomic                   Forces (Hartrees/Bohr)
 Number     Number              X              Y              Z
 -------------------------------------------------------------------
      1        6          -0.005413650    0.000476309   -0.000000803
      2        6           0.005413466   -0.000475709    0.000001049
      3        1          -0.001547963    0.000135842    0.001580581
      4        1          -0.001549179    0.000136805   -0.001579152
      5        1           0.001549332   -0.000137528    0.001578928
      6        1           0.001547993   -0.000135719   -0.001580603
 -------------------------------------------------------------------
 Cartesian Forces:  Max     0.005413650 RMS     0.002091212

 GradGradGradGradGradGradGradGradGradGradGradGradGradGradGradGradGradGrad
 Berny optimization.
 FormGI is forming the generalized inverse of G from B-inverse, IUseBI=4.
 Internal  Forces:  Max     0.008543682 RMS     0.002584015
 Search for a local minimum.
 Step number   1 out of a maximum of   25
 All quantities printed in internal units (Hartrees-Bohrs-Radians)
 Mixed Optimization -- RFO/linear search
 Second derivative matrix not updated -- first step.
 The second derivative matrix:
                          R1        R2        R3        R4        R5
           R1           0.60821
           R2           0.00000   0.35131
           R3           0.00000   0.00000   0.35131
           R4           0.00000   0.00000   0.00000   0.35131
           R5           0.00000   0.00000   0.00000   0.00000   0.35131
           A1           0.00000   0.00000   0.00000   0.00000   0.00000
           A2           0.00000   0.00000   0.00000   0.00000   0.00000
           A3           0.00000   0.00000   0.00000   0.00000   0.00000
           A4           0.00000   0.00000   0.00000   0.00000   0.00000
           A5           0.00000   0.00000   0.00000   0.00000   0.00000
           A6           0.00000   0.00000   0.00000   0.00000   0.00000
           D1           0.00000   0.00000   0.00000   0.00000   0.00000
           D2           0.00000   0.00000   0.00000   0.00000   0.00000
           D3           0.00000   0.00000   0.00000   0.00000   0.00000
           D4           0.00000   0.00000   0.00000   0.00000   0.00000
                          A1        A2        A3        A4        A5
           A1           0.16000
           A2           0.00000   0.16000
           A3           0.00000   0.00000   0.16000
           A4           0.00000   0.00000   0.00000   0.16000
           A5           0.00000   0.00000   0.00000   0.00000   0.16000
           A6           0.00000   0.00000   0.00000   0.00000   0.00000
           D1           0.00000   0.00000   0.00000   0.00000   0.00000
           D2           0.00000   0.00000   0.00000   0.00000   0.00000
           D3           0.00000   0.00000   0.00000   0.00000   0.00000
           D4           0.00000   0.00000   0.00000   0.00000   0.00000
                          A6        D1        D2        D3        D4
           A6           0.16000
           D1           0.00000   0.03087
           D2           0.00000   0.00000   0.03087
           D3           0.00000   0.00000   0.00000   0.03087
           D4           0.00000   0.00000   0.00000   0.00000   0.03087
 ITU=  0
     Eigenvalues ---    0.03087   0.03087   0.03087   0.16000   0.16000
     Eigenvalues ---    0.16000   0.16000   0.35131   0.35131   0.35131
     Eigenvalues ---    0.35131   0.60821
 RFO step:  Lambda=-2.85343126D-04 EMin= 3.08730960D-02
 Linear search not attempted -- first point.
 Iteration  1 RMS(Cart)=  0.01313366 RMS(Int)=  0.00004507
 Iteration  2 RMS(Cart)=  0.00004473 RMS(Int)=  0.00000000
 Iteration  3 RMS(Cart)=  0.00000000 RMS(Int)=  0.00000000
 Variable       Old X    -DE/DX   Delta X   Delta X   Delta X     New X
                                 (Linear)    (Quad)   (Total)
    R1        2.50297   0.00854   0.00000   0.01404   0.01404   2.51701
    R2        2.05463  -0.00055   0.00000  -0.00156  -0.00156   2.05307
    R3        2.05463  -0.00055   0.00000  -0.00156  -0.00156   2.05307
    R4        2.05463  -0.00055   0.00000  -0.00156  -0.00156   2.05307
    R5        2.05463  -0.00055   0.00000  -0.00156  -0.00156   2.05307
    A1        2.11436   0.00147   0.00000   0.00917   0.00917   2.12353
    A2        2.11435   0.00147   0.00000   0.00918   0.00918   2.12353
    A3        2.05448  -0.00294   0.00000  -0.01835  -0.01835   2.03612
    A4        2.11435   0.00147   0.00000   0.00918   0.00918   2.12353
    A5        2.11436   0.00147   0.00000   0.00917   0.00917   2.12353
    A6        2.05448  -0.00294   0.00000  -0.01835  -0.01835   2.03612
    D1        0.00001   0.00000   0.00000  -0.00001  -0.00001   0.00000
    D2        3.14159   0.00000   0.00000   0.00000   0.00000  -3.14159
    D3       -3.14158   0.00000   0.00000  -0.00001  -0.00001   3.14159
    D4        0.00000   0.00000   0.00000   0.00000   0.00000   0.00000
         Item               Value     Threshold  Converged?
 Maximum Force            0.008544     0.000450     NO 
 RMS     Force            0.002584     0.000300     NO 
 Maximum Displacement     0.022211     0.001800     NO 
 RMS     Displacement     0.013125     0.001200     NO 
 Predicted change in Energy=-1.428455D-04
 GradGradGradGradGradGradGradGradGradGradGradGradGradGradGradGradGradGrad

                          Input orientation:                          
 ---------------------------------------------------------------------
 Center     Atomic      Atomic             Coordinates (Angstroms)
 Number     Number       Type             X           Y           Z
 ---------------------------------------------------------------------
      1          6           0       -7.654381    3.041597    0.000001
      2          6           0       -6.327569    2.924799   -0.000001
      3          1           0       -8.222550    3.091984   -0.924657
      4          1           0       -8.222614    3.091244    0.924660
      5          1           0       -5.759336    2.875148   -0.924660
      6          1           0       -5.759400    2.874409    0.924657
 ---------------------------------------------------------------------
                    Distance matrix (angstroms):
                    1          2          3          4          5
     1  C    0.000000
     2  C    1.331943   0.000000
     3  H    1.086438   2.115158   0.000000
     4  H    1.086438   2.115159   1.849318   0.000000
     5  H    2.115159   1.086438   2.472739   3.087785   0.000000
     6  H    2.115158   1.086438   3.087784   2.472739   1.849318
                    6
     6  H    0.000000
 Stoichiometry    C2H4
 Framework group  C1[X(C2H4)]
 Deg. of freedom    12
 Full point group                 C1      NOp   1
 Largest Abelian subgroup         C1      NOp   1
 Largest concise Abelian subgroup C1      NOp   1
                         Standard orientation:                         
 ---------------------------------------------------------------------
 Center     Atomic      Atomic             Coordinates (Angstroms)
 Number     Number       Type             X           Y           Z
 ---------------------------------------------------------------------
      1          6           0       -0.665971    0.000000    0.000000
      2          6           0        0.665971    0.000000    0.000000
      3          1           0       -1.236369    0.924659   -0.000001
      4          1           0       -1.236370   -0.924659   -0.000001
      5          1           0        1.236370    0.924659   -0.000001
      6          1           0        1.236369   -0.924659   -0.000001
 ---------------------------------------------------------------------
 Rotational constants (GHZ):    146.6253421     30.0700703     24.9527380
 Standard basis: 6-31G(d,p) (6D, 7F)
 There are    50 symmetry adapted cartesian basis functions of A   symmetry.
 There are    50 symmetry adapted basis functions of A   symmetry.
    50 basis functions,    84 primitive gaussians,    50 cartesian basis functions
     8 alpha electrons        8 beta electrons
       nuclear repulsion energy        33.3399659888 Hartrees.
 NAtoms=    6 NActive=    6 NUniq=    6 SFac= 1.00D+00 NAtFMM=   60 NAOKFM=F Big=F
 Integral buffers will be    131072 words long.
 Raffenetti 2 integral format.
 Two-electron integral symmetry is turned on.
 One-electron integrals computed using PRISM.
 NBasis=    50 RedAO= T EigKep=  6.96D-03  NBF=    50
 NBsUse=    50 1.00D-06 EigRej= -1.00D+00 NBFU=    50
 Initial guess from the checkpoint file:  "/scr/Gau-18873.chk"
 B after Tr=     0.000000    0.000000    0.000000
         Rot=    1.000000    0.000000    0.000000    0.000001 Ang=   0.00 deg.
 ExpMin= 1.61D-01 ExpMax= 3.05D+03 ExpMxC= 4.57D+02 IAcc=1 IRadAn=         1 AccDes= 0.00D+00
 Harris functional with IExCor=  402 and IRadAn=       1 diagonalized for initial guess.
 HarFok:  IExCor=  402 AccDes= 0.00D+00 IRadAn=         1 IDoV= 1 UseB2=F ITyADJ=14
 ICtDFT=  3500011 ScaDFX=  1.000000  1.000000  1.000000  1.000000
 FoFCou: FMM=F IPFlag=           0 FMFlag=      100000 FMFlg1=           0
         NFxFlg=           0 DoJE=T BraDBF=F KetDBF=T FulRan=T
         wScrn=  0.000000 ICntrl=     500 IOpCl=  0 I1Cent=   200000004 NGrid=           0
         NMat0=    1 NMatS0=      1 NMatT0=    0 NMatD0=    1 NMtDS0=    0 NMtDT0=    0
 Petite list used in FoFCou.
 Keep R1 ints in memory in canonical form, NReq=1709344.
 Requested convergence on RMS density matrix=1.00D-08 within 128 cycles.
 Requested convergence on MAX density matrix=1.00D-06.
 Requested convergence on             energy=1.00D-06.
 No special actions if energy rises.
 Integral accuracy reduced to 1.0D-05 until final iterations.
 Initial convergence to 1.0D-05 achieved.  Increase integral accuracy.
 SCF Done:  E(RB3LYP) =  -78.5938002950     A.U. after    8 cycles
            NFock=  8  Conv=0.89D-08     -V/T= 2.0105
 Calling FoFJK, ICntrl=      2127 FMM=F ISym2X=0 I1Cent= 0 IOpClX= 0 NMat=1 NMatS=1 NMatT=0.
 ***** Axes restored to original set *****
 -------------------------------------------------------------------
 Center     Atomic                   Forces (Hartrees/Bohr)
 Number     Number              X              Y              Z
 -------------------------------------------------------------------
      1        6           0.002560017   -0.000225449    0.000000029
      2        6          -0.002560130    0.000225130   -0.000000044
      3        1          -0.000369412    0.000032514    0.000131362
      4        1          -0.000369286    0.000032639   -0.000131461
      5        1           0.000369346   -0.000032450    0.000131454
      6        1           0.000369465   -0.000032385   -0.000131341
 -------------------------------------------------------------------
 Cartesian Forces:  Max     0.002560130 RMS     0.000876499

 GradGradGradGradGradGradGradGradGradGradGradGradGradGradGradGradGradGrad
 Berny optimization.
 Using GEDIIS/GDIIS optimizer.
 FormGI is forming the generalized inverse of G from B-inverse, IUseBI=4.
 Internal  Forces:  Max     0.001828359 RMS     0.000529249
 Search for a local minimum.
 Step number   2 out of a maximum of   25
 All quantities printed in internal units (Hartrees-Bohrs-Radians)
 Mixed Optimization -- En-DIIS/RFO-DIIS
 Update second derivatives using D2CorX and points    1    2
 DE= -1.44D-04 DEPred=-1.43D-04 R= 1.01D+00
 TightC=F SS=  1.41D+00  RLast= 3.49D-02 DXNew= 5.0454D-01 1.0467D-01
 Trust test= 1.01D+00 RLast= 3.49D-02 DXMaxT set to 3.00D-01
 The second derivative matrix:
                          R1        R2        R3        R4        R5
           R1           0.73307
           R2          -0.00676   0.35166
           R3          -0.00674   0.00036   0.35167
           R4          -0.00674   0.00036   0.00036   0.35167
           R5          -0.00676   0.00036   0.00036   0.00036   0.35166
           A1           0.00033   0.00013   0.00012   0.00012   0.00013
           A2           0.00034   0.00013   0.00012   0.00012   0.00012
           A3          -0.00068  -0.00025  -0.00025  -0.00025  -0.00025
           A4           0.00034   0.00013   0.00012   0.00012   0.00012
           A5           0.00033   0.00013   0.00012   0.00012   0.00013
           A6          -0.00067  -0.00025  -0.00025  -0.00025  -0.00025
           D1           0.00000   0.00000   0.00000   0.00000   0.00000
           D2           0.00001   0.00000   0.00000   0.00000   0.00000
           D3          -0.00001   0.00000   0.00000   0.00000   0.00000
           D4           0.00000   0.00000   0.00000   0.00000   0.00000
                          A1        A2        A3        A4        A5
           A1           0.15760
           A2          -0.00240   0.15760
           A3           0.00480   0.00480   0.15039
           A4          -0.00240  -0.00240   0.00480   0.15760
           A5          -0.00240  -0.00240   0.00480  -0.00240   0.15760
           A6           0.00480   0.00480  -0.00961   0.00481   0.00480
           D1           0.00000   0.00000   0.00000   0.00000   0.00000
           D2           0.00000   0.00000   0.00000   0.00000   0.00000
           D3           0.00000   0.00000   0.00000   0.00000   0.00000
           D4           0.00000   0.00000   0.00000   0.00000   0.00000
                          A6        D1        D2        D3        D4
           A6           0.15039
           D1           0.00000   0.03087
           D2           0.00000   0.00000   0.03087
           D3           0.00000   0.00000   0.00000   0.03087
           D4           0.00000   0.00000   0.00000   0.00000   0.03087
 ITU=  1  0
 Use linear search instead of GDIIS.
     Eigenvalues ---    0.03087   0.03087   0.03087   0.13117   0.16000
     Eigenvalues ---    0.16000   0.16000   0.35131   0.35131   0.35131
     Eigenvalues ---    0.35226   0.73355
 RFO step:  Lambda=-1.09633979D-05 EMin= 3.08730959D-02
 Quartic linear search produced a step of  0.00999.
 Iteration  1 RMS(Cart)=  0.00166856 RMS(Int)=  0.00000216
 Iteration  2 RMS(Cart)=  0.00000216 RMS(Int)=  0.00000000
 Iteration  3 RMS(Cart)=  0.00000000 RMS(Int)=  0.00000000
 Variable       Old X    -DE/DX   Delta X   Delta X   Delta X     New X
                                 (Linear)    (Quad)   (Total)
    R1        2.51701  -0.00183   0.00014  -0.00264  -0.00250   2.51451
    R2        2.05307   0.00008  -0.00002   0.00019   0.00018   2.05325
    R3        2.05307   0.00008  -0.00002   0.00019   0.00018   2.05325
    R4        2.05307   0.00008  -0.00002   0.00019   0.00018   2.05325
    R5        2.05307   0.00008  -0.00002   0.00019   0.00018   2.05325
    A1        2.12353   0.00026   0.00009   0.00192   0.00201   2.12554
    A2        2.12353   0.00026   0.00009   0.00192   0.00201   2.12554
    A3        2.03612  -0.00053  -0.00018  -0.00384  -0.00403   2.03210
    A4        2.12353   0.00026   0.00009   0.00192   0.00201   2.12554
    A5        2.12353   0.00026   0.00009   0.00192   0.00201   2.12554
    A6        2.03612  -0.00053  -0.00018  -0.00384  -0.00403   2.03210
    D1        0.00000   0.00000   0.00000   0.00000   0.00000   0.00000
    D2       -3.14159   0.00000   0.00000   0.00000   0.00000   3.14159
    D3        3.14159   0.00000   0.00000   0.00000   0.00000  -3.14159
    D4        0.00000   0.00000   0.00000   0.00000   0.00000   0.00000
         Item               Value     Threshold  Converged?
 Maximum Force            0.001828     0.000450     NO 
 RMS     Force            0.000529     0.000300     NO 
 Maximum Displacement     0.002353     0.001800     NO 
 RMS     Displacement     0.001669     0.001200     NO 
 Predicted change in Energy=-5.491277D-06
 GradGradGradGradGradGradGradGradGradGradGradGradGradGradGradGradGradGrad

                          Input orientation:                          
 ---------------------------------------------------------------------
 Center     Atomic      Atomic             Coordinates (Angstroms)
 Number     Number       Type             X           Y           Z
 ---------------------------------------------------------------------
      1          6           0       -7.653722    3.041537    0.000001
      2          6           0       -6.328228    2.924855   -0.000001
      3          1           0       -8.223795    3.092094   -0.923587
      4          1           0       -8.223858    3.091354    0.923590
      5          1           0       -5.758092    2.875039   -0.923590
      6          1           0       -5.758155    2.874300    0.923587
 ---------------------------------------------------------------------
                    Distance matrix (angstroms):
                    1          2          3          4          5
     1  C    0.000000
     2  C    1.330621   0.000000
     3  H    1.086533   2.115220   0.000000
     4  H    1.086533   2.115220   1.847177   0.000000
     5  H    2.115220   1.086533   2.475238   3.088506   0.000000
     6  H    2.115220   1.086533   3.088506   2.475238   1.847177
                    6
     6  H    0.000000
 Stoichiometry    C2H4
 Framework group  C1[X(C2H4)]
 Deg. of freedom    12
 Full point group                 C1      NOp   1
 Largest Abelian subgroup         C1      NOp   1
 Largest concise Abelian subgroup C1      NOp   1
                         Standard orientation:                         
 ---------------------------------------------------------------------
 Center     Atomic      Atomic             Coordinates (Angstroms)
 Number     Number       Type             X           Y           Z
 ---------------------------------------------------------------------
      1          6           0       -0.665310    0.000000    0.000000
      2          6           0        0.665310    0.000000    0.000000
      3          1           0       -1.237619    0.923589    0.000001
      4          1           0       -1.237619   -0.923588    0.000000
      5          1           0        1.237619    0.923589    0.000000
      6          1           0        1.237619   -0.923589    0.000001
 ---------------------------------------------------------------------
 Rotational constants (GHZ):    146.9653569     30.0855661     24.9732443
 Standard basis: 6-31G(d,p) (6D, 7F)
 There are    50 symmetry adapted cartesian basis functions of A   symmetry.
 There are    50 symmetry adapted basis functions of A   symmetry.
    50 basis functions,    84 primitive gaussians,    50 cartesian basis functions
     8 alpha electrons        8 beta electrons
       nuclear repulsion energy        33.3531355122 Hartrees.
 NAtoms=    6 NActive=    6 NUniq=    6 SFac= 1.00D+00 NAtFMM=   60 NAOKFM=F Big=F
 Integral buffers will be    131072 words long.
 Raffenetti 2 integral format.
 Two-electron integral symmetry is turned on.
 One-electron integrals computed using PRISM.
 NBasis=    50 RedAO= T EigKep=  6.93D-03  NBF=    50
 NBsUse=    50 1.00D-06 EigRej= -1.00D+00 NBFU=    50
 Initial guess from the checkpoint file:  "/scr/Gau-18873.chk"
 B after Tr=     0.000000    0.000000    0.000000
         Rot=    1.000000    0.000000    0.000000    0.000000 Ang=   0.00 deg.
 Keep R1 ints in memory in canonical form, NReq=1709344.
 Requested convergence on RMS density matrix=1.00D-08 within 128 cycles.
 Requested convergence on MAX density matrix=1.00D-06.
 Requested convergence on             energy=1.00D-06.
 No special actions if energy rises.
 SCF Done:  E(RB3LYP) =  -78.5938071463     A.U. after    7 cycles
            NFock=  7  Conv=0.18D-08     -V/T= 2.0105
 Calling FoFJK, ICntrl=      2127 FMM=F ISym2X=0 I1Cent= 0 IOpClX= 0 NMat=1 NMatS=1 NMatT=0.
 ***** Axes restored to original set *****
 -------------------------------------------------------------------
 Center     Atomic                   Forces (Hartrees/Bohr)
 Number     Number              X              Y              Z
 -------------------------------------------------------------------
      1        6           0.000700683   -0.000061591    0.000000020
      2        6          -0.000700634    0.000061734   -0.000000031
      3        1          -0.000112019    0.000009818   -0.000013412
      4        1          -0.000111975    0.000009818    0.000013369
      5        1           0.000111949   -0.000009875   -0.000013329
      6        1           0.000111996   -0.000009904    0.000013384
 -------------------------------------------------------------------
 Cartesian Forces:  Max     0.000700683 RMS     0.000240453

 GradGradGradGradGradGradGradGradGradGradGradGradGradGradGradGradGradGrad
 Berny optimization.
 Using GEDIIS/GDIIS optimizer.
 FormGI is forming the generalized inverse of G from B-inverse, IUseBI=4.
 Internal  Forces:  Max     0.000478532 RMS     0.000139752
 Search for a local minimum.
 Step number   3 out of a maximum of   25
 All quantities printed in internal units (Hartrees-Bohrs-Radians)
 Mixed Optimization -- En-DIIS/RFO-DIIS
 Swapping is turned off.
 Update second derivatives using D2CorX and points    1    2    3
 DE= -6.85D-06 DEPred=-5.49D-06 R= 1.25D+00
 TightC=F SS=  1.41D+00  RLast= 7.42D-03 DXNew= 5.0454D-01 2.2254D-02
 Trust test= 1.25D+00 RLast= 7.42D-03 DXMaxT set to 3.00D-01
 The second derivative matrix:
                          R1        R2        R3        R4        R5
           R1           0.65328
           R2           0.00298   0.35130
           R3           0.00299  -0.00001   0.35130
           R4           0.00299  -0.00001  -0.00001   0.35130
           R5           0.00298  -0.00001  -0.00001  -0.00001   0.35130
           A1           0.01159  -0.00178  -0.00178  -0.00178  -0.00178
           A2           0.01159  -0.00178  -0.00178  -0.00178  -0.00178
           A3          -0.02318   0.00356   0.00355   0.00355   0.00355
           A4           0.01159  -0.00178  -0.00178  -0.00178  -0.00178
           A5           0.01159  -0.00178  -0.00178  -0.00178  -0.00178
           A6          -0.02318   0.00356   0.00356   0.00355   0.00355
           D1           0.00000   0.00000   0.00000   0.00000   0.00000
           D2           0.00001   0.00000   0.00000   0.00000   0.00000
           D3          -0.00001   0.00000   0.00000   0.00000   0.00000
           D4           0.00000   0.00000   0.00000   0.00000   0.00000
                          A1        A2        A3        A4        A5
           A1           0.15630
           A2          -0.00370   0.15630
           A3           0.00740   0.00740   0.14521
           A4          -0.00370  -0.00370   0.00740   0.15630
           A5          -0.00370  -0.00370   0.00740  -0.00370   0.15630
           A6           0.00740   0.00740  -0.01479   0.00740   0.00740
           D1           0.00000   0.00000   0.00000   0.00000   0.00000
           D2           0.00000   0.00000   0.00000   0.00000   0.00000
           D3           0.00000   0.00000   0.00000   0.00000   0.00000
           D4           0.00000   0.00000   0.00000   0.00000   0.00000
                          A6        D1        D2        D3        D4
           A6           0.14521
           D1           0.00000   0.03087
           D2           0.00000   0.00000   0.03087
           D3           0.00000   0.00000   0.00000   0.03087
           D4           0.00000   0.00000   0.00000   0.00000   0.03087
 ITU=  1  1  0
     Eigenvalues ---    0.03087   0.03087   0.03087   0.11196   0.16000
     Eigenvalues ---    0.16000   0.16000   0.35131   0.35131   0.35131
     Eigenvalues ---    0.35186   0.65634
 En-DIIS/RFO-DIIS IScMMF=        0 using points:     3    2
 RFO step:  Lambda=-4.81394396D-07.
 DidBck=F Rises=F RFO-DIIS coefs:    1.32739   -0.32739
 Iteration  1 RMS(Cart)=  0.00049914 RMS(Int)=  0.00000022
 Iteration  2 RMS(Cart)=  0.00000022 RMS(Int)=  0.00000000
 Variable       Old X    -DE/DX   Delta X   Delta X   Delta X     New X
                                 (Linear)    (Quad)   (Total)
    R1        2.51451  -0.00048  -0.00082  -0.00005  -0.00087   2.51364
    R2        2.05325   0.00007   0.00006   0.00019   0.00025   2.05350
    R3        2.05325   0.00007   0.00006   0.00019   0.00025   2.05350
    R4        2.05325   0.00007   0.00006   0.00019   0.00025   2.05350
    R5        2.05325   0.00007   0.00006   0.00019   0.00025   2.05350
    A1        2.12554   0.00006   0.00066  -0.00003   0.00063   2.12617
    A2        2.12554   0.00006   0.00066  -0.00003   0.00063   2.12617
    A3        2.03210  -0.00012  -0.00132   0.00007  -0.00125   2.03084
    A4        2.12554   0.00006   0.00066  -0.00003   0.00063   2.12617
    A5        2.12554   0.00006   0.00066  -0.00003   0.00063   2.12617
    A6        2.03210  -0.00012  -0.00132   0.00007  -0.00125   2.03084
    D1        0.00000   0.00000   0.00000   0.00000   0.00000   0.00000
    D2        3.14159   0.00000   0.00000   0.00000   0.00000  -3.14159
    D3       -3.14159   0.00000   0.00000   0.00000   0.00000   3.14159
    D4        0.00000   0.00000   0.00000   0.00000   0.00000   0.00000
         Item               Value     Threshold  Converged?
 Maximum Force            0.000479     0.000450     NO 
 RMS     Force            0.000140     0.000300     YES
 Maximum Displacement     0.000785     0.001800     YES
 RMS     Displacement     0.000499     0.001200     YES
 Predicted change in Energy=-4.706851D-07
 GradGradGradGradGradGradGradGradGradGradGradGradGradGradGradGradGradGrad

                          Input orientation:                          
 ---------------------------------------------------------------------
 Center     Atomic      Atomic             Coordinates (Angstroms)
 Number     Number       Type             X           Y           Z
 ---------------------------------------------------------------------
      1          6           0       -7.653493    3.041518    0.000001
      2          6           0       -6.328457    2.924876   -0.000001
      3          1           0       -8.224210    3.092129   -0.923339
      4          1           0       -8.224273    3.091391    0.923342
      5          1           0       -5.757677    2.875002   -0.923342
      6          1           0       -5.757740    2.874263    0.923339
 ---------------------------------------------------------------------
                    Distance matrix (angstroms):
                    1          2          3          4          5
     1  C    0.000000
     2  C    1.330160   0.000000
     3  H    1.086663   2.115280   0.000000
     4  H    1.086663   2.115280   1.846681   0.000000
     5  H    2.115280   1.086663   2.476072   3.088878   0.000000
     6  H    2.115280   1.086663   3.088878   2.476072   1.846681
                    6
     6  H    0.000000
 Stoichiometry    C2H4
 Framework group  CS[SG(C2),X(H4)]
 Deg. of freedom     7
 Full point group                 CS      NOp   2
 Omega: Change in point group or standard orientation.

 Old FWG=C01  [X(C2H4)]
 New FWG=CS   [SG(C2),X(H4)]
 Largest Abelian subgroup         CS      NOp   2
 Largest concise Abelian subgroup CS      NOp   2
                         Standard orientation:                         
 ---------------------------------------------------------------------
 Center     Atomic      Atomic             Coordinates (Angstroms)
 Number     Number       Type             X           Y           Z
 ---------------------------------------------------------------------
      1          6           0        0.000000    0.665080    0.000000
      2          6           0        0.000000   -0.665080    0.000000
      3          1           0        0.000001    1.238036    0.923341
      4          1           0        0.000001    1.238036   -0.923341
      5          1           0        0.000001   -1.238036    0.923341
      6          1           0        0.000001   -1.238036   -0.923341
 ---------------------------------------------------------------------
 Rotational constants (GHZ):    147.0442728     30.0912855     24.9794634
 Standard basis: 6-31G(d,p) (6D, 7F)
 There are    32 symmetry adapted cartesian basis functions of A'  symmetry.
 There are    18 symmetry adapted cartesian basis functions of A"  symmetry.
 There are    32 symmetry adapted basis functions of A'  symmetry.
 There are    18 symmetry adapted basis functions of A"  symmetry.
    50 basis functions,    84 primitive gaussians,    50 cartesian basis functions
     8 alpha electrons        8 beta electrons
       nuclear repulsion energy        33.3564897993 Hartrees.
 NAtoms=    6 NActive=    6 NUniq=    4 SFac= 2.25D+00 NAtFMM=   60 NAOKFM=F Big=F
 Integral buffers will be    131072 words long.
 Raffenetti 2 integral format.
 Two-electron integral symmetry is turned on.
 One-electron integrals computed using PRISM.
 NBasis=    50 RedAO= T EigKep=  9.77D-03  NBF=    32    18
 NBsUse=    50 1.00D-06 EigRej= -1.00D+00 NBFU=    32    18
 Initial guess from the checkpoint file:  "/scr/Gau-18873.chk"
 B after Tr=     0.000000    0.000000    0.000000
         Rot=    0.500000   -0.500000    0.500000    0.500000 Ang=-120.00 deg.
 Initial guess orbital symmetries:
       Occupied  (A') (A') (A') (A') (A") (A') (A") (A')
       Virtual   (A') (A') (A') (A') (A') (A') (A') (A') (A') (A')
                 (A') (A') (A') (A') (A') (A') (A') (A') (A') (A')
                 (A') (A') (A') (A') (A') (A') (A") (A") (A") (A")
                 (A") (A") (A") (A") (A") (A") (A") (A") (A") (A")
                 (A") (A")
 Keep R1 ints in memory in symmetry-blocked form, NReq=1712498.
 Requested convergence on RMS density matrix=1.00D-08 within 128 cycles.
 Requested convergence on MAX density matrix=1.00D-06.
 Requested convergence on             energy=1.00D-06.
 No special actions if energy rises.
 SCF Done:  E(RB3LYP) =  -78.5938076152     A.U. after    5 cycles
            NFock=  5  Conv=0.82D-08     -V/T= 2.0105
 Calling FoFJK, ICntrl=      2127 FMM=F ISym2X=1 I1Cent= 0 IOpClX= 0 NMat=1 NMatS=1 NMatT=0.
 ***** Axes restored to original set *****
 -------------------------------------------------------------------
 Center     Atomic                   Forces (Hartrees/Bohr)
 Number     Number              X              Y              Z
 -------------------------------------------------------------------
      1        6          -0.000002030    0.000000097    0.000000000
      2        6           0.000001990   -0.000000256    0.000000000
      3        1           0.000001354   -0.000000079    0.000001147
      4        1           0.000001354   -0.000000078   -0.000001147
      5        1          -0.000001334    0.000000157    0.000001129
      6        1          -0.000001334    0.000000158   -0.000001129
 -------------------------------------------------------------------
 Cartesian Forces:  Max     0.000002030 RMS     0.000001070

 GradGradGradGradGradGradGradGradGradGradGradGradGradGradGradGradGradGrad
 Berny optimization.
 Using GEDIIS/GDIIS optimizer.
 FormGI is forming the generalized inverse of G from B-inverse, IUseBI=4.
 Internal  Forces:  Max     0.000001689 RMS     0.000000946
 Search for a local minimum.
 Step number   4 out of a maximum of   25
 All quantities printed in internal units (Hartrees-Bohrs-Radians)
 Mixed Optimization -- En-DIIS/RFO-DIIS
 Swapping is turned off.
 Update second derivatives using D2CorX and points    1    2    3    4
 DE= -4.69D-07 DEPred=-4.71D-07 R= 9.96D-01
 Trust test= 9.96D-01 RLast= 2.39D-03 DXMaxT set to 3.00D-01
 The second derivative matrix:
                          R1        R2        R3        R4        R5
           R1           0.65036
           R2           0.00455   0.35123
           R3           0.00456  -0.00008   0.35123
           R4           0.00456  -0.00008  -0.00008   0.35123
           R5           0.00455  -0.00008  -0.00008  -0.00008   0.35123
           A1           0.01113  -0.00136  -0.00136  -0.00136  -0.00136
           A2           0.01114  -0.00136  -0.00136  -0.00136  -0.00136
           A3          -0.02227   0.00273   0.00273   0.00273   0.00273
           A4           0.01114  -0.00136  -0.00136  -0.00136  -0.00136
           A5           0.01113  -0.00136  -0.00136  -0.00136  -0.00136
           A6          -0.02227   0.00273   0.00273   0.00273   0.00273
           D1           0.00000   0.00000   0.00000   0.00000   0.00000
           D2          -0.00002   0.00000   0.00000   0.00000   0.00000
           D3           0.00001   0.00000   0.00000   0.00000   0.00000
           D4           0.00000   0.00000   0.00000   0.00000   0.00000
                          A1        A2        A3        A4        A5
           A1           0.15624
           A2          -0.00376   0.15625
           A3           0.00751   0.00751   0.14498
           A4          -0.00376  -0.00376   0.00751   0.15624
           A5          -0.00376  -0.00376   0.00751  -0.00376   0.15624
           A6           0.00751   0.00751  -0.01502   0.00751   0.00751
           D1           0.00000   0.00000   0.00000   0.00000   0.00000
           D2           0.00000   0.00000  -0.00001   0.00000   0.00000
           D3           0.00000   0.00000   0.00001   0.00000   0.00000
           D4           0.00000   0.00000   0.00000   0.00000   0.00000
                          A6        D1        D2        D3        D4
           A6           0.14498
           D1           0.00000   0.03087
           D2          -0.00001   0.00000   0.03087
           D3           0.00001   0.00000   0.00000   0.03087
           D4           0.00000   0.00000   0.00000   0.00000   0.03087
 ITU=  0  1  1  0
     Eigenvalues ---    0.03087   0.03087   0.03087   0.11175   0.16000
     Eigenvalues ---    0.16000   0.16000   0.35119   0.35131   0.35131
     Eigenvalues ---    0.35131   0.65336
 En-DIIS/RFO-DIIS IScMMF=        0 using points:     4    3    2
 RFO step:  Lambda= 0.00000000D+00.
 DidBck=F Rises=F RFO-DIIS coefs:    0.98040    0.02501   -0.00541
 Iteration  1 RMS(Cart)=  0.00000454 RMS(Int)=  0.00000000
 Iteration  2 RMS(Cart)=  0.00000000 RMS(Int)=  0.00000001
 ClnCor:  largest displacement from symmetrization is 6.24D-09 for atom     6.
 Variable       Old X    -DE/DX   Delta X   Delta X   Delta X     New X
                                 (Linear)    (Quad)   (Total)
    R1        2.51364   0.00000   0.00000   0.00000   0.00000   2.51364
    R2        2.05350   0.00000   0.00000   0.00000   0.00000   2.05349
    R3        2.05350   0.00000   0.00000   0.00000   0.00000   2.05349
    R4        2.05350   0.00000   0.00000   0.00000   0.00000   2.05349
    R5        2.05350   0.00000   0.00000   0.00000   0.00000   2.05349
    A1        2.12617   0.00000   0.00000   0.00000   0.00000   2.12617
    A2        2.12617   0.00000   0.00000   0.00000   0.00000   2.12617
    A3        2.03084   0.00000   0.00000   0.00000   0.00001   2.03085
    A4        2.12617   0.00000   0.00000   0.00000   0.00000   2.12617
    A5        2.12617   0.00000   0.00000   0.00000   0.00000   2.12617
    A6        2.03084   0.00000   0.00000   0.00000   0.00001   2.03085
    D1        0.00000   0.00000   0.00000   0.00000   0.00000   0.00000
    D2       -3.14159   0.00000   0.00000   0.00000   0.00000   3.14159
    D3        3.14159   0.00000   0.00000   0.00000   0.00000  -3.14159
    D4        0.00000   0.00000   0.00000   0.00000   0.00000   0.00000
         Item               Value     Threshold  Converged?
 Maximum Force            0.000002     0.000450     YES
 RMS     Force            0.000001     0.000300     YES
 Maximum Displacement     0.000009     0.001800     YES
 RMS     Displacement     0.000005     0.001200     YES
 Predicted change in Energy=-2.459074D-11
 Optimization completed.
    -- Stationary point found.
                           ----------------------------
                           !   Optimized Parameters   !
                           ! (Angstroms and Degrees)  !
 --------------------------                            --------------------------
 ! Name  Definition              Value          Derivative Info.                !
 --------------------------------------------------------------------------------
 ! R1    R(1,2)                  1.3302         -DE/DX =    0.0                 !
 ! R2    R(1,3)                  1.0867         -DE/DX =    0.0                 !
 ! R3    R(1,4)                  1.0867         -DE/DX =    0.0                 !
 ! R4    R(2,5)                  1.0867         -DE/DX =    0.0                 !
 ! R5    R(2,6)                  1.0867         -DE/DX =    0.0                 !
 ! A1    A(2,1,3)              121.8206         -DE/DX =    0.0                 !
 ! A2    A(2,1,4)              121.8206         -DE/DX =    0.0                 !
 ! A3    A(3,1,4)              116.3587         -DE/DX =    0.0                 !
 ! A4    A(1,2,5)              121.8206         -DE/DX =    0.0                 !
 ! A5    A(1,2,6)              121.8206         -DE/DX =    0.0                 !
 ! A6    A(5,2,6)              116.3587         -DE/DX =    0.0                 !
 ! D1    D(3,1,2,5)              0.0            -DE/DX =    0.0                 !
 ! D2    D(3,1,2,6)            180.0001         -DE/DX =    0.0                 !
 ! D3    D(4,1,2,5)           -180.0001         -DE/DX =    0.0                 !
 ! D4    D(4,1,2,6)              0.0            -DE/DX =    0.0                 !
 --------------------------------------------------------------------------------
 GradGradGradGradGradGradGradGradGradGradGradGradGradGradGradGradGradGrad

                          Input orientation:                          
 ---------------------------------------------------------------------
 Center     Atomic      Atomic             Coordinates (Angstroms)
 Number     Number       Type             X           Y           Z
 ---------------------------------------------------------------------
      1          6           0       -7.653493    3.041518    0.000001
      2          6           0       -6.328457    2.924876   -0.000001
      3          1           0       -8.224210    3.092129   -0.923339
      4          1           0       -8.224273    3.091391    0.923342
      5          1           0       -5.757677    2.875002   -0.923342
      6          1           0       -5.757740    2.874263    0.923339
 ---------------------------------------------------------------------
                    Distance matrix (angstroms):
                    1          2          3          4          5
     1  C    0.000000
     2  C    1.330160   0.000000
     3  H    1.086663   2.115280   0.000000
     4  H    1.086663   2.115280   1.846681   0.000000
     5  H    2.115280   1.086663   2.476072   3.088878   0.000000
     6  H    2.115280   1.086663   3.088878   2.476072   1.846681
                    6
     6  H    0.000000
 Stoichiometry    C2H4
 Framework group  CS[SG(C2),X(H4)]
 Deg. of freedom     7
 Full point group                 CS      NOp   2
 Largest Abelian subgroup         CS      NOp   2
 Largest concise Abelian subgroup CS      NOp   2
                         Standard orientation:                         
 ---------------------------------------------------------------------
 Center     Atomic      Atomic             Coordinates (Angstroms)
 Number     Number       Type             X           Y           Z
 ---------------------------------------------------------------------
      1          6           0        0.000000    0.665080    0.000000
      2          6           0        0.000000   -0.665080    0.000000
      3          1           0        0.000001    1.238036    0.923341
      4          1           0        0.000001    1.238036   -0.923341
      5          1           0        0.000001   -1.238036    0.923341
      6          1           0        0.000001   -1.238036   -0.923341
 ---------------------------------------------------------------------
 Rotational constants (GHZ):    147.0442728     30.0912855     24.9794634

 **********************************************************************

            Population analysis using the SCF density.

 **********************************************************************

 Orbital symmetries:
       Occupied  (A') (A') (A') (A') (A") (A') (A") (A')
       Virtual   (A') (A') (A") (A') (A") (A') (A') (A') (A") (A')
                 (A') (A') (A") (A") (A') (A') (A') (A") (A") (A')
                 (A") (A') (A") (A') (A') (A") (A') (A") (A') (A")
                 (A') (A') (A") (A") (A') (A') (A') (A") (A') (A")
                 (A') (A')
 The electronic state is 1-A'.
 Alpha  occ. eigenvalues --  -10.18441 -10.18351  -0.75517  -0.57654  -0.46398
 Alpha  occ. eigenvalues --   -0.41579  -0.35182  -0.26745
 Alpha virt. eigenvalues --    0.01740   0.12237   0.14055   0.15812   0.24447
 Alpha virt. eigenvalues --    0.33134   0.47289   0.54826   0.56352   0.63742
 Alpha virt. eigenvalues --    0.65374   0.69914   0.83101   0.84453   0.91318
 Alpha virt. eigenvalues --    0.92171   1.10259   1.18859   1.38517   1.39104
 Alpha virt. eigenvalues --    1.52936   1.83798   1.88814   1.95880   2.03738
 Alpha virt. eigenvalues --    2.04262   2.12954   2.21373   2.36509   2.44609
 Alpha virt. eigenvalues --    2.50922   2.62270   2.67900   2.67997   2.75763
 Alpha virt. eigenvalues --    3.02302   3.16844   3.33757   3.46994   3.76879
 Alpha virt. eigenvalues --    4.17888   4.49562
          Condensed to atoms (all electrons):
               1          2          3          4          5          6
     1  C    4.817404   0.679390   0.388075   0.388075  -0.035261  -0.035261
     2  C    0.679390   4.817404  -0.035261  -0.035261   0.388075   0.388075
     3  H    0.388075  -0.035261   0.595958  -0.045581  -0.009820   0.005416
     4  H    0.388075  -0.035261  -0.045581   0.595958   0.005416  -0.009820
     5  H   -0.035261   0.388075  -0.009820   0.005416   0.595958  -0.045581
     6  H   -0.035261   0.388075   0.005416  -0.009820  -0.045581   0.595958
 Mulliken charges:
               1
     1  C   -0.202422
     2  C   -0.202423
     3  H    0.101211
     4  H    0.101211
     5  H    0.101211
     6  H    0.101211
 Sum of Mulliken charges =   0.00000
 Mulliken charges with hydrogens summed into heavy atoms:
               1
     1  C    0.000000
     2  C    0.000000
 Electronic spatial extent (au):  <R**2>=             82.1338
 Charge=              0.0000 electrons
 Dipole moment (field-independent basis, Debye):
    X=              0.0000    Y=              0.0000    Z=              0.0000  Tot=              0.0000
 Quadrupole moment (field-independent basis, Debye-Ang):
   XX=            -14.9823   YY=            -12.0272   ZZ=            -12.1398
   XY=              0.0000   XZ=              0.0000   YZ=              0.0000
 Traceless Quadrupole moment (field-independent basis, Debye-Ang):
   XX=             -1.9325   YY=              1.0226   ZZ=              0.9099
   XY=              0.0000   XZ=              0.0000   YZ=              0.0000
 Octapole moment (field-independent basis, Debye-Ang**2):
  XXX=              0.0000  YYY=              0.0000  ZZZ=              0.0000  XYY=              0.0000
  XXY=              0.0000  XXZ=              0.0000  XZZ=              0.0000  YZZ=              0.0000
  YYZ=              0.0000  XYZ=              0.0000
 Hexadecapole moment (field-independent basis, Debye-Ang**3):
 XXXX=            -15.4667 YYYY=            -66.8766 ZZZZ=            -26.4193 XXXY=              0.0000
 XXXZ=              0.0000 YYYX=              0.0000 YYYZ=              0.0000 ZZZX=              0.0000
 ZZZY=              0.0000 XXYY=            -14.5913 XXZZ=             -7.5727 YYZZ=            -13.3064
 XXYZ=              0.0000 YYXZ=              0.0000 ZZXY=              0.0000
 N-N= 3.335648979927D+01 E-N=-2.481219177735D+02  KE= 7.778072891184D+01
 Symmetry A'   KE= 7.381730141378D+01
 Symmetry A"   KE= 3.963427498059D+00
 1\1\GINC-N0286\FOpt\RB3LYP\6-31G(d,p)\C2H4\GDAVIDS3\21-Feb-2017\0\\#n 
 B3LYP/6-31G(d,p) Opt\\Ethene B3LYP 6-31Gdp\\0,1\C,-7.6534929756,3.0415
 181015,0.0000006575\C,-6.3284569432,2.9248761467,-0.0000006573\H,-8.22
 42102802,3.0921294639,-0.9233393977\H,-8.2242734923,3.0913905674,0.923
 3418448\H,-5.7576765589,2.8750023094,-0.9233418302\H,-5.7577397711,2.8
 742634129,0.9233393825\\Version=ES64L-G09RevE.01\State=1-A'\HF=-78.593
 8076\RMSD=8.170e-09\RMSF=1.070e-06\Dipole=-0.0000002,-0.0000007,0.\Qua
 drupole=0.7433746,-1.4198996,0.6765251,-0.1919187,-0.0000745,-0.000845
 4\PG=CS [SG(C2),X(H4)]\\@


 "WOULD YOU TELL ME PLEASE, WHICH WAY I OUGHT TO WALK FROM HERE?"
 "THAT DEPENDS A GREAT DEAL ON WHERE YOU WANT TO GO," SAID THE CAT.
 "I DON'T MUCH CARE WHERE -- ", SAID ALICE.
 "THEN IT DOESN'T MATTER WHICH WAY YOU WALK," SAID THE CAT.

                                      -- LEWIS CARROLL
 Job cpu time:       0 days  0 hours  0 minutes 46.6 seconds.
 File lengths (MBytes):  RWF=      5 Int=      0 D2E=      0 Chk=      1 Scr=      1
 Normal termination of Gaussian 09 at Tue Feb 21 18:06:25 2017.
