 Entering Gaussian System, Link 0=g09
 Input=Ethene_B3LYP_LANL2DZ.com
 Output=Ethene_B3LYP_LANL2DZ.log
 Initial command:
 /sw/contrib/gaussian/g09/E01/g09/l1.exe "/scr/Gau-12301.inp" -scrdir="/scr/"
 Entering Link 1 = /sw/contrib/gaussian/g09/E01/g09/l1.exe PID=     12302.
  
 Copyright (c) 1988,1990,1992,1993,1995,1998,2003,2009,2015,
            Gaussian, Inc.  All Rights Reserved.
  
 This is part of the Gaussian(R) 09 program.  It is based on
 the Gaussian(R) 03 system (copyright 2003, Gaussian, Inc.),
 the Gaussian(R) 98 system (copyright 1998, Gaussian, Inc.),
 the Gaussian(R) 94 system (copyright 1995, Gaussian, Inc.),
 the Gaussian 92(TM) system (copyright 1992, Gaussian, Inc.),
 the Gaussian 90(TM) system (copyright 1990, Gaussian, Inc.),
 the Gaussian 88(TM) system (copyright 1988, Gaussian, Inc.),
 the Gaussian 86(TM) system (copyright 1986, Carnegie Mellon
 University), and the Gaussian 82(TM) system (copyright 1983,
 Carnegie Mellon University). Gaussian is a federally registered
 trademark of Gaussian, Inc.
  
 This software contains proprietary and confidential information,
 including trade secrets, belonging to Gaussian, Inc.
  
 This software is provided under written license and may be
 used, copied, transmitted, or stored only in accord with that
 written license.
  
 The following legend is applicable only to US Government
 contracts under FAR:
  
                    RESTRICTED RIGHTS LEGEND
  
 Use, reproduction and disclosure by the US Government is
 subject to restrictions as set forth in subparagraphs (a)
 and (c) of the Commercial Computer Software - Restricted
 Rights clause in FAR 52.227-19.
  
 Gaussian, Inc.
 340 Quinnipiac St., Bldg. 40, Wallingford CT 06492
  
  
 ---------------------------------------------------------------
 Warning -- This program may not be used in any manner that
 competes with the business of Gaussian, Inc. or will provide
 assistance to any competitor of Gaussian, Inc.  The licensee
 of this program is prohibited from giving any competitor of
 Gaussian, Inc. access to this program.  By using this program,
 the user acknowledges that Gaussian, Inc. is engaged in the
 business of creating and licensing software in the field of
 computational chemistry and represents and warrants to the
 licensee that it is not a competitor of Gaussian, Inc. and that
 it will not use this program in any manner prohibited above.
 ---------------------------------------------------------------
  

 Cite this work as:
 Gaussian 09, Revision E.01,
 M. J. Frisch, G. W. Trucks, H. B. Schlegel, G. E. Scuseria, 
 M. A. Robb, J. R. Cheeseman, G. Scalmani, V. Barone, B. Mennucci, 
 G. A. Petersson, H. Nakatsuji, M. Caricato, X. Li, H. P. Hratchian, 
 A. F. Izmaylov, J. Bloino, G. Zheng, J. L. Sonnenberg, M. Hada, 
 M. Ehara, K. Toyota, R. Fukuda, J. Hasegawa, M. Ishida, T. Nakajima, 
 Y. Honda, O. Kitao, H. Nakai, T. Vreven, J. A. Montgomery, Jr., 
 J. E. Peralta, F. Ogliaro, M. Bearpark, J. J. Heyd, E. Brothers, 
 K. N. Kudin, V. N. Staroverov, T. Keith, R. Kobayashi, J. Normand, 
 K. Raghavachari, A. Rendell, J. C. Burant, S. S. Iyengar, J. Tomasi, 
 M. Cossi, N. Rega, J. M. Millam, M. Klene, J. E. Knox, J. B. Cross, 
 V. Bakken, C. Adamo, J. Jaramillo, R. Gomperts, R. E. Stratmann, 
 O. Yazyev, A. J. Austin, R. Cammi, C. Pomelli, J. W. Ochterski, 
 R. L. Martin, K. Morokuma, V. G. Zakrzewski, G. A. Voth, 
 P. Salvador, J. J. Dannenberg, S. Dapprich, A. D. Daniels, 
 O. Farkas, J. B. Foresman, J. V. Ortiz, J. Cioslowski, 
 and D. J. Fox, Gaussian, Inc., Wallingford CT, 2013.
 
 ******************************************
 Gaussian 09:  ES64L-G09RevE.01 30-Nov-2015
                21-Feb-2017 
 ******************************************
 %NProcShared=8
 Will use up to    8 processors via shared memory.
 --------------------
 #n B3LYP/LANL2DZ Opt
 --------------------
 1/14=-1,18=20,19=15,26=3,38=1/1,3;
 2/9=110,12=2,17=6,18=5,40=1/2;
 3/5=6,6=3,11=2,16=1,25=1,30=1,71=1,74=-5/1,2,3;
 4//1;
 5/5=2,38=5/2;
 6/7=2,8=2,9=2,10=2,28=1/1;
 7//1,2,3,16;
 1/14=-1,18=20,19=15,26=3/3(2);
 2/9=110/2;
 99//99;
 2/9=110/2;
 3/5=6,6=3,11=2,16=1,25=1,30=1,71=1,74=-5/1,2,3;
 4/5=5,16=3,69=1/1;
 5/5=2,38=5/2;
 7//1,2,3,16;
 1/14=-1,18=20,19=15,26=3/3(-5);
 2/9=110/2;
 6/7=2,8=2,9=2,10=2,19=2,28=1/1;
 99/9=1/99;
 --------------------
 Ethene B3LYP LANL2DZ
 --------------------
 Symbolic Z-matrix:
 Charge =  0 Multiplicity = 1
 C                    -7.65068   3.04127   0. 
 C                    -6.33127   2.92512   0. 
 H                    -8.2108    3.09095  -0.93056 
 H                    -8.21086   3.09021   0.93056 
 H                    -5.77109   2.87619  -0.93056 
 H                    -5.77115   2.87544   0.93056 
 

 GradGradGradGradGradGradGradGradGradGradGradGradGradGradGradGradGradGrad
 Berny optimization.
 Initialization pass.
                           ----------------------------
                           !    Initial Parameters    !
                           ! (Angstroms and Degrees)  !
 --------------------------                            --------------------------
 ! Name  Definition              Value          Derivative Info.                !
 --------------------------------------------------------------------------------
 ! R1    R(1,2)                  1.3245         estimate D2E/DX2                !
 ! R2    R(1,3)                  1.0873         estimate D2E/DX2                !
 ! R3    R(1,4)                  1.0873         estimate D2E/DX2                !
 ! R4    R(2,5)                  1.0873         estimate D2E/DX2                !
 ! R5    R(2,6)                  1.0873         estimate D2E/DX2                !
 ! A1    A(2,1,3)              121.1437         estimate D2E/DX2                !
 ! A2    A(2,1,4)              121.1435         estimate D2E/DX2                !
 ! A3    A(3,1,4)              117.7128         estimate D2E/DX2                !
 ! A4    A(1,2,5)              121.1435         estimate D2E/DX2                !
 ! A5    A(1,2,6)              121.1437         estimate D2E/DX2                !
 ! A6    A(5,2,6)              117.7128         estimate D2E/DX2                !
 ! D1    D(3,1,2,5)              0.0007         estimate D2E/DX2                !
 ! D2    D(3,1,2,6)            180.0            estimate D2E/DX2                !
 ! D3    D(4,1,2,5)           -179.9994         estimate D2E/DX2                !
 ! D4    D(4,1,2,6)             -0.0001         estimate D2E/DX2                !
 --------------------------------------------------------------------------------
 Trust Radius=3.00D-01 FncErr=1.00D-07 GrdErr=1.00D-06
 Number of steps in this run=     25 maximum allowed number of steps=    100.
 GradGradGradGradGradGradGradGradGradGradGradGradGradGradGradGradGradGrad

                          Input orientation:                          
 ---------------------------------------------------------------------
 Center     Atomic      Atomic             Coordinates (Angstroms)
 Number     Number       Type             X           Y           Z
 ---------------------------------------------------------------------
      1          6           0       -7.650680    3.041270    0.000000
      2          6           0       -6.331270    2.925120    0.000000
      3          1           0       -8.210800    3.090950   -0.930560
      4          1           0       -8.210860    3.090210    0.930560
      5          1           0       -5.771090    2.876190   -0.930560
      6          1           0       -5.771150    2.875440    0.930560
 ---------------------------------------------------------------------
                    Distance matrix (angstroms):
                    1          2          3          4          5
     1  C    0.000000
     2  C    1.324513   0.000000
     3  H    1.087265   2.103824   0.000000
     4  H    1.087262   2.103819   1.861120   0.000000
     5  H    2.103818   1.087262   2.449144   3.076045   0.000000
     6  H    2.103824   1.087265   3.076053   2.449145   1.861120
                    6
     6  H    0.000000
 Stoichiometry    C2H4
 Framework group  C1[X(C2H4)]
 Deg. of freedom    12
 Full point group                 C1      NOp   1
 Largest Abelian subgroup         C1      NOp   1
 Largest concise Abelian subgroup C1      NOp   1
                         Standard orientation:                         
 ---------------------------------------------------------------------
 Center     Atomic      Atomic             Coordinates (Angstroms)
 Number     Number       Type             X           Y           Z
 ---------------------------------------------------------------------
      1          6           0       -0.662256   -0.000001    0.000000
      2          6           0        0.662256    0.000001   -0.000002
      3          1           0       -1.224576    0.930558   -0.000002
      4          1           0       -1.224569   -0.930562    0.000003
      5          1           0        1.224568    0.930562    0.000006
      6          1           0        1.224576   -0.930558    0.000001
 ---------------------------------------------------------------------
 Rotational constants (GHZ):    144.7715521     30.4973425     25.1907084
 Standard basis: LANL2DZ (5D, 7F)
 There are    26 symmetry adapted cartesian basis functions of A   symmetry.
 There are    26 symmetry adapted basis functions of A   symmetry.
    26 basis functions,    66 primitive gaussians,    26 cartesian basis functions
     8 alpha electrons        8 beta electrons
       nuclear repulsion energy        33.4454879269 Hartrees.
 NAtoms=    6 NActive=    6 NUniq=    6 SFac= 1.00D+00 NAtFMM=   60 NAOKFM=F Big=F
 Integral buffers will be    131072 words long.
 Raffenetti 2 integral format.
 Two-electron integral symmetry is turned on.
 One-electron integrals computed using PRISM.
   1 Symmetry operations used in ECPInt.
 ECPInt:  NShTT=     171 NPrTT=    1149 LenC2=     172 LenP2D=    1050.
 LDataN:  DoStor=T MaxTD1= 2 Len=   12
 NBasis=    26 RedAO= T EigKep=  4.25D-03  NBF=    26
 NBsUse=    26 1.00D-06 EigRej= -1.00D+00 NBFU=    26
 ExpMin= 1.15D-01 ExpMax= 4.23D+03 ExpMxC= 1.46D+02 IAcc=1 IRadAn=         1 AccDes= 0.00D+00
 Harris functional with IExCor=  402 and IRadAn=       1 diagonalized for initial guess.
 HarFok:  IExCor=  402 AccDes= 0.00D+00 IRadAn=         1 IDoV= 1 UseB2=F ITyADJ=14
 ICtDFT=  3500011 ScaDFX=  1.000000  1.000000  1.000000  1.000000
 FoFCou: FMM=F IPFlag=           0 FMFlag=      100000 FMFlg1=           0
         NFxFlg=           0 DoJE=T BraDBF=F KetDBF=T FulRan=T
         wScrn=  0.000000 ICntrl=     500 IOpCl=  0 I1Cent=   200000004 NGrid=           0
         NMat0=    1 NMatS0=      1 NMatT0=    0 NMatD0=    1 NMtDS0=    0 NMtDT0=    0
 Petite list used in FoFCou.
 Keep R1 ints in memory in canonical form, NReq=942616.
 Requested convergence on RMS density matrix=1.00D-08 within 128 cycles.
 Requested convergence on MAX density matrix=1.00D-06.
 Requested convergence on             energy=1.00D-06.
 No special actions if energy rises.
 Integral accuracy reduced to 1.0D-05 until final iterations.
 Initial convergence to 1.0D-05 achieved.  Increase integral accuracy.
 SCF Done:  E(RB3LYP) =  -78.5774088403     A.U. after   11 cycles
            NFock= 11  Conv=0.21D-09     -V/T= 2.0064

 **********************************************************************

            Population analysis using the SCF density.

 **********************************************************************

 Orbital symmetries:
       Occupied  (A) (A) (A) (A) (A) (A) (A) (A)
       Virtual   (A) (A) (A) (A) (A) (A) (A) (A) (A) (A) (A) (A)
                 (A) (A) (A) (A) (A) (A)
 The electronic state is 1-A.
 Alpha  occ. eigenvalues --  -10.19061 -10.18970  -0.76715  -0.57842  -0.47425
 Alpha  occ. eigenvalues --   -0.42156  -0.35605  -0.27656
 Alpha virt. eigenvalues --    0.00452   0.13754   0.14640   0.20001   0.25504
 Alpha virt. eigenvalues --    0.26033   0.29366   0.31411   0.31626   0.40541
 Alpha virt. eigenvalues --    0.52249   0.60400   0.64580   1.00030   1.04324
 Alpha virt. eigenvalues --    1.12345   1.20998   1.40188
          Condensed to atoms (all electrons):
               1          2          3          4          5          6
     1  C    5.100186   0.595142   0.394635   0.394636  -0.037254  -0.037254
     2  C    0.595142   5.100186  -0.037254  -0.037254   0.394636   0.394635
     3  H    0.394635  -0.037254   0.456649  -0.017809  -0.003296   0.002029
     4  H    0.394636  -0.037254  -0.017809   0.456648   0.002029  -0.003296
     5  H   -0.037254   0.394636  -0.003296   0.002029   0.456648  -0.017809
     6  H   -0.037254   0.394635   0.002029  -0.003296  -0.017809   0.456649
 Mulliken charges:
               1
     1  C   -0.410091
     2  C   -0.410091
     3  H    0.205045
     4  H    0.205046
     5  H    0.205046
     6  H    0.205045
 Sum of Mulliken charges =   0.00000
 Mulliken charges with hydrogens summed into heavy atoms:
               1
     1  C    0.000000
     2  C    0.000000
 Electronic spatial extent (au):  <R**2>=             81.8444
 Charge=              0.0000 electrons
 Dipole moment (field-independent basis, Debye):
    X=              0.0000    Y=              0.0000    Z=              0.0000  Tot=              0.0000
 Quadrupole moment (field-independent basis, Debye-Ang):
   XX=            -11.9415   YY=            -11.7992   ZZ=            -15.6153
   XY=              0.0000   XZ=              0.0000   YZ=              0.0000
 Traceless Quadrupole moment (field-independent basis, Debye-Ang):
   XX=              1.1772   YY=              1.3195   ZZ=             -2.4966
   XY=              0.0000   XZ=              0.0000   YZ=              0.0000
 Octapole moment (field-independent basis, Debye-Ang**2):
  XXX=              0.0000  YYY=              0.0000  ZZZ=              0.0000  XYY=              0.0000
  XXY=              0.0000  XXZ=              0.0000  XZZ=              0.0000  YZZ=              0.0000
  YYZ=              0.0000  XYZ=              0.0000
 Hexadecapole moment (field-independent basis, Debye-Ang**3):
 XXXX=            -64.6110 YYYY=            -24.9148 ZZZZ=            -18.1657 XXXY=             -0.0001
 XXXZ=              0.0000 YYYX=              0.0000 YYYZ=              0.0000 ZZZX=              0.0000
 ZZZY=              0.0000 XXYY=            -11.9378 XXZZ=            -14.9740 YYZZ=             -7.8901
 XXYZ=              0.0000 YYXZ=              0.0000 ZZXY=              0.0000
 N-N= 3.344548792691D+01 E-N=-2.484581546926D+02  KE= 7.807840186440D+01
   1 Symmetry operations used in ECPInt.
 ECPInt:  NShTT=     171 NPrTT=    1149 LenC2=     172 LenP2D=    1050.
 LDataN:  DoStor=T MaxTD1= 3 Len=   28
 Calling FoFJK, ICntrl=      2127 FMM=F ISym2X=0 I1Cent= 0 IOpClX= 0 NMat=1 NMatS=1 NMatT=0.
 ***** Axes restored to original set *****
 -------------------------------------------------------------------
 Center     Atomic                   Forces (Hartrees/Bohr)
 Number     Number              X              Y              Z
 -------------------------------------------------------------------
      1        6          -0.026243021    0.002309892   -0.000000808
      2        6           0.026242838   -0.002309263    0.000001063
      3        1          -0.002524578    0.000222164    0.000732365
      4        1          -0.002525884    0.000222458   -0.000730904
      5        1           0.002526042   -0.000223190    0.000730676
      6        1           0.002524602   -0.000222062   -0.000732392
 -------------------------------------------------------------------
 Cartesian Forces:  Max     0.026243021 RMS     0.008869103

 GradGradGradGradGradGradGradGradGradGradGradGradGradGradGradGradGradGrad
 Berny optimization.
 FormGI is forming the generalized inverse of G from B-inverse, IUseBI=4.
 Internal  Forces:  Max     0.031414478 RMS     0.008267570
 Search for a local minimum.
 Step number   1 out of a maximum of   25
 All quantities printed in internal units (Hartrees-Bohrs-Radians)
 Mixed Optimization -- RFO/linear search
 Second derivative matrix not updated -- first step.
 The second derivative matrix:
                          R1        R2        R3        R4        R5
           R1           0.60821
           R2           0.00000   0.35131
           R3           0.00000   0.00000   0.35131
           R4           0.00000   0.00000   0.00000   0.35131
           R5           0.00000   0.00000   0.00000   0.00000   0.35131
           A1           0.00000   0.00000   0.00000   0.00000   0.00000
           A2           0.00000   0.00000   0.00000   0.00000   0.00000
           A3           0.00000   0.00000   0.00000   0.00000   0.00000
           A4           0.00000   0.00000   0.00000   0.00000   0.00000
           A5           0.00000   0.00000   0.00000   0.00000   0.00000
           A6           0.00000   0.00000   0.00000   0.00000   0.00000
           D1           0.00000   0.00000   0.00000   0.00000   0.00000
           D2           0.00000   0.00000   0.00000   0.00000   0.00000
           D3           0.00000   0.00000   0.00000   0.00000   0.00000
           D4           0.00000   0.00000   0.00000   0.00000   0.00000
                          A1        A2        A3        A4        A5
           A1           0.16000
           A2           0.00000   0.16000
           A3           0.00000   0.00000   0.16000
           A4           0.00000   0.00000   0.00000   0.16000
           A5           0.00000   0.00000   0.00000   0.00000   0.16000
           A6           0.00000   0.00000   0.00000   0.00000   0.00000
           D1           0.00000   0.00000   0.00000   0.00000   0.00000
           D2           0.00000   0.00000   0.00000   0.00000   0.00000
           D3           0.00000   0.00000   0.00000   0.00000   0.00000
           D4           0.00000   0.00000   0.00000   0.00000   0.00000
                          A6        D1        D2        D3        D4
           A6           0.16000
           D1           0.00000   0.03087
           D2           0.00000   0.00000   0.03087
           D3           0.00000   0.00000   0.00000   0.03087
           D4           0.00000   0.00000   0.00000   0.00000   0.03087
 ITU=  0
     Eigenvalues ---    0.03087   0.03087   0.03087   0.16000   0.16000
     Eigenvalues ---    0.16000   0.16000   0.35131   0.35131   0.35131
     Eigenvalues ---    0.35131   0.60821
 RFO step:  Lambda=-1.84877856D-03 EMin= 3.08730960D-02
 Linear search not attempted -- first point.
 Iteration  1 RMS(Cart)=  0.02590725 RMS(Int)=  0.00006234
 Iteration  2 RMS(Cart)=  0.00006263 RMS(Int)=  0.00000000
 Iteration  3 RMS(Cart)=  0.00000000 RMS(Int)=  0.00000000
 Variable       Old X    -DE/DX   Delta X   Delta X   Delta X     New X
                                 (Linear)    (Quad)   (Total)
    R1        2.50297   0.03141   0.00000   0.05149   0.05149   2.55446
    R2        2.05463   0.00068   0.00000   0.00194   0.00194   2.05657
    R3        2.05463   0.00069   0.00000   0.00194   0.00194   2.05657
    R4        2.05463   0.00069   0.00000   0.00194   0.00194   2.05657
    R5        2.05463   0.00068   0.00000   0.00194   0.00194   2.05657
    A1        2.11436   0.00174   0.00000   0.01078   0.01078   2.12514
    A2        2.11435   0.00175   0.00000   0.01078   0.01078   2.12514
    A3        2.05448  -0.00349   0.00000  -0.02156  -0.02156   2.03291
    A4        2.11435   0.00175   0.00000   0.01079   0.01079   2.12514
    A5        2.11436   0.00174   0.00000   0.01078   0.01078   2.12514
    A6        2.05448  -0.00349   0.00000  -0.02156  -0.02156   2.03291
    D1        0.00001   0.00000   0.00000  -0.00001  -0.00001   0.00000
    D2        3.14159   0.00000   0.00000   0.00000   0.00000  -3.14159
    D3       -3.14158   0.00000   0.00000  -0.00001  -0.00001   3.14159
    D4        0.00000   0.00000   0.00000   0.00000   0.00000   0.00000
         Item               Value     Threshold  Converged?
 Maximum Force            0.031414     0.000450     NO 
 RMS     Force            0.008268     0.000300     NO 
 Maximum Displacement     0.045494     0.001800     NO 
 RMS     Displacement     0.025898     0.001200     NO 
 Predicted change in Energy=-9.281439D-04
 GradGradGradGradGradGradGradGradGradGradGradGradGradGradGradGradGradGrad

                          Input orientation:                          
 ---------------------------------------------------------------------
 Center     Atomic      Atomic             Coordinates (Angstroms)
 Number     Number       Type             X           Y           Z
 ---------------------------------------------------------------------
      1          6           0       -7.664252    3.042465    0.000001
      2          6           0       -6.317697    2.923930   -0.000001
      3          1           0       -8.234871    3.093069   -0.925314
      4          1           0       -8.234935    3.092328    0.925317
      5          1           0       -5.747016    2.874064   -0.925317
      6          1           0       -5.747079    2.873324    0.925314
 ---------------------------------------------------------------------
                    Distance matrix (angstroms):
                    1          2          3          4          5
     1  C    0.000000
     2  C    1.351762   0.000000
     3  H    1.088289   2.135502   0.000000
     4  H    1.088290   2.135502   1.850631   0.000000
     5  H    2.135502   1.088290   2.497476   3.108412   0.000000
     6  H    2.135501   1.088289   3.108411   2.497476   1.850631
                    6
     6  H    0.000000
 Stoichiometry    C2H4
 Framework group  C1[X(C2H4)]
 Deg. of freedom    12
 Full point group                 C1      NOp   1
 Largest Abelian subgroup         C1      NOp   1
 Largest concise Abelian subgroup C1      NOp   1
                         Standard orientation:                         
 ---------------------------------------------------------------------
 Center     Atomic      Atomic             Coordinates (Angstroms)
 Number     Number       Type             X           Y           Z
 ---------------------------------------------------------------------
      1          6           0       -0.675881    0.000000    0.000000
      2          6           0        0.675881    0.000000    0.000001
      3          1           0       -1.248738    0.925316   -0.000001
      4          1           0       -1.248739   -0.925315   -0.000001
      5          1           0        1.248738    0.925316   -0.000002
      6          1           0        1.248738   -0.925316   -0.000001
 ---------------------------------------------------------------------
 Rotational constants (GHZ):    146.4172391     29.2977385     24.4127965
 Standard basis: LANL2DZ (5D, 7F)
 There are    26 symmetry adapted cartesian basis functions of A   symmetry.
 There are    26 symmetry adapted basis functions of A   symmetry.
    26 basis functions,    66 primitive gaussians,    26 cartesian basis functions
     8 alpha electrons        8 beta electrons
       nuclear repulsion energy        33.0462535727 Hartrees.
 NAtoms=    6 NActive=    6 NUniq=    6 SFac= 1.00D+00 NAtFMM=   60 NAOKFM=F Big=F
 Integral buffers will be    131072 words long.
 Raffenetti 2 integral format.
 Two-electron integral symmetry is turned on.
 One-electron integrals computed using PRISM.
   1 Symmetry operations used in ECPInt.
 ECPInt:  NShTT=     171 NPrTT=    1149 LenC2=     172 LenP2D=    1046.
 LDataN:  DoStor=T MaxTD1= 2 Len=   12
 NBasis=    26 RedAO= T EigKep=  4.58D-03  NBF=    26
 NBsUse=    26 1.00D-06 EigRej= -1.00D+00 NBFU=    26
 Initial guess from the checkpoint file:  "/scr/Gau-12302.chk"
 B after Tr=     0.000000    0.000000    0.000000
         Rot=    1.000000    0.000000    0.000000    0.000001 Ang=   0.00 deg.
 ExpMin= 1.15D-01 ExpMax= 4.23D+03 ExpMxC= 1.46D+02 IAcc=1 IRadAn=         1 AccDes= 0.00D+00
 Harris functional with IExCor=  402 and IRadAn=       1 diagonalized for initial guess.
 HarFok:  IExCor=  402 AccDes= 0.00D+00 IRadAn=         1 IDoV= 1 UseB2=F ITyADJ=14
 ICtDFT=  3500011 ScaDFX=  1.000000  1.000000  1.000000  1.000000
 FoFCou: FMM=F IPFlag=           0 FMFlag=      100000 FMFlg1=           0
         NFxFlg=           0 DoJE=T BraDBF=F KetDBF=T FulRan=T
         wScrn=  0.000000 ICntrl=     500 IOpCl=  0 I1Cent=   200000004 NGrid=           0
         NMat0=    1 NMatS0=      1 NMatT0=    0 NMatD0=    1 NMtDS0=    0 NMtDT0=    0
 Petite list used in FoFCou.
 Keep R1 ints in memory in canonical form, NReq=942616.
 Requested convergence on RMS density matrix=1.00D-08 within 128 cycles.
 Requested convergence on MAX density matrix=1.00D-06.
 Requested convergence on             energy=1.00D-06.
 No special actions if energy rises.
 Integral accuracy reduced to 1.0D-05 until final iterations.
 Initial convergence to 1.0D-05 achieved.  Increase integral accuracy.
 SCF Done:  E(RB3LYP) =  -78.5781940911     A.U. after   10 cycles
            NFock= 10  Conv=0.29D-09     -V/T= 2.0075
   1 Symmetry operations used in ECPInt.
 ECPInt:  NShTT=     171 NPrTT=    1149 LenC2=     172 LenP2D=    1046.
 LDataN:  DoStor=T MaxTD1= 3 Len=   28
 Calling FoFJK, ICntrl=      2127 FMM=F ISym2X=0 I1Cent= 0 IOpClX= 0 NMat=1 NMatS=1 NMatT=0.
 ***** Axes restored to original set *****
 -------------------------------------------------------------------
 Center     Atomic                   Forces (Hartrees/Bohr)
 Number     Number              X              Y              Z
 -------------------------------------------------------------------
      1        6           0.004081154   -0.000359297    0.000000025
      2        6          -0.004081223    0.000358935   -0.000000046
      3        1           0.000082018   -0.000007105   -0.000162266
      4        1           0.000082148   -0.000007240    0.000162148
      5        1          -0.000082115    0.000007429   -0.000162128
      6        1          -0.000081981    0.000007279    0.000162266
 -------------------------------------------------------------------
 Cartesian Forces:  Max     0.004081223 RMS     0.001368343

 GradGradGradGradGradGradGradGradGradGradGradGradGradGradGradGradGradGrad
 Berny optimization.
 Using GEDIIS/GDIIS optimizer.
 FormGI is forming the generalized inverse of G from B-inverse, IUseBI=4.
 Internal  Forces:  Max     0.004261730 RMS     0.001105572
 Search for a local minimum.
 Step number   2 out of a maximum of   25
 All quantities printed in internal units (Hartrees-Bohrs-Radians)
 Mixed Optimization -- RFO/linear search
 Update second derivatives using D2CorX and points    1    2
 DE= -7.85D-04 DEPred=-9.28D-04 R= 8.46D-01
 TightC=F SS=  1.41D+00  RLast= 6.37D-02 DXNew= 5.0454D-01 1.9120D-01
 Trust test= 8.46D-01 RLast= 6.37D-02 DXMaxT set to 3.00D-01
 The second derivative matrix:
                          R1        R2        R3        R4        R5
           R1           0.68702
           R2          -0.00147   0.35122
           R3          -0.00147  -0.00008   0.35123
           R4          -0.00147  -0.00008  -0.00008   0.35123
           R5          -0.00147  -0.00008  -0.00008  -0.00008   0.35122
           A1           0.00239  -0.00011  -0.00011  -0.00011  -0.00011
           A2           0.00240  -0.00011  -0.00011  -0.00011  -0.00011
           A3          -0.00479   0.00023   0.00023   0.00023   0.00023
           A4           0.00240  -0.00011  -0.00011  -0.00011  -0.00011
           A5           0.00239  -0.00011  -0.00011  -0.00011  -0.00011
           A6          -0.00479   0.00023   0.00023   0.00023   0.00023
           D1           0.00000   0.00000   0.00000   0.00000   0.00000
           D2           0.00000   0.00000   0.00000   0.00000   0.00000
           D3           0.00000   0.00000   0.00000   0.00000   0.00000
           D4           0.00000   0.00000   0.00000   0.00000   0.00000
                          A1        A2        A3        A4        A5
           A1           0.16003
           A2           0.00003   0.16003
           A3          -0.00006  -0.00006   0.16012
           A4           0.00003   0.00003  -0.00006   0.16003
           A5           0.00003   0.00003  -0.00006   0.00003   0.16003
           A6          -0.00006  -0.00006   0.00012  -0.00006  -0.00006
           D1           0.00000   0.00000   0.00000   0.00000   0.00000
           D2           0.00000   0.00000   0.00000   0.00000   0.00000
           D3           0.00000   0.00000   0.00000   0.00000   0.00000
           D4           0.00000   0.00000   0.00000   0.00000   0.00000
                          A6        D1        D2        D3        D4
           A6           0.16012
           D1           0.00000   0.03087
           D2           0.00000   0.00000   0.03087
           D3           0.00000   0.00000   0.00000   0.03087
           D4           0.00000   0.00000   0.00000   0.00000   0.03087
 ITU=  1  0
 Use linear search instead of GDIIS.
     Eigenvalues ---    0.03087   0.03087   0.03087   0.16000   0.16000
     Eigenvalues ---    0.16000   0.16024   0.35095   0.35131   0.35131
     Eigenvalues ---    0.35131   0.68718
 RFO step:  Lambda=-7.81774954D-07 EMin= 3.08730960D-02
 Quartic linear search produced a step of -0.11855.
 Iteration  1 RMS(Cart)=  0.00266181 RMS(Int)=  0.00000035
 Iteration  2 RMS(Cart)=  0.00000035 RMS(Int)=  0.00000000
 Variable       Old X    -DE/DX   Delta X   Delta X   Delta X     New X
                                 (Linear)    (Quad)   (Total)
    R1        2.55446  -0.00426  -0.00610  -0.00033  -0.00643   2.54803
    R2        2.05657   0.00009  -0.00023   0.00045   0.00022   2.05679
    R3        2.05657   0.00009  -0.00023   0.00045   0.00022   2.05679
    R4        2.05657   0.00009  -0.00023   0.00045   0.00022   2.05679
    R5        2.05657   0.00009  -0.00023   0.00045   0.00022   2.05679
    A1        2.12514  -0.00011  -0.00128   0.00048  -0.00080   2.12433
    A2        2.12514  -0.00011  -0.00128   0.00047  -0.00080   2.12433
    A3        2.03291   0.00021   0.00256  -0.00095   0.00161   2.03452
    A4        2.12514  -0.00011  -0.00128   0.00048  -0.00080   2.12433
    A5        2.12514  -0.00011  -0.00128   0.00048  -0.00080   2.12433
    A6        2.03291   0.00021   0.00256  -0.00095   0.00161   2.03452
    D1        0.00000   0.00000   0.00000   0.00000   0.00000   0.00000
    D2       -3.14159   0.00000   0.00000   0.00000   0.00000   3.14159
    D3        3.14159   0.00000   0.00000   0.00000   0.00001  -3.14159
    D4        0.00000   0.00000   0.00000   0.00000   0.00000   0.00000
         Item               Value     Threshold  Converged?
 Maximum Force            0.004262     0.000450     NO 
 RMS     Force            0.001106     0.000300     NO 
 Maximum Displacement     0.004488     0.001800     NO 
 RMS     Displacement     0.002662     0.001200     NO 
 Predicted change in Energy=-1.349819D-05
 GradGradGradGradGradGradGradGradGradGradGradGradGradGradGradGradGradGrad

                          Input orientation:                          
 ---------------------------------------------------------------------
 Center     Atomic      Atomic             Coordinates (Angstroms)
 Number     Number       Type             X           Y           Z
 ---------------------------------------------------------------------
      1          6           0       -7.662558    3.042315    0.000001
      2          6           0       -6.319392    2.924077   -0.000001
      3          1           0       -8.232497    3.092860   -0.925873
      4          1           0       -8.232560    3.092120    0.925876
      5          1           0       -5.749390    2.874275   -0.925876
      6          1           0       -5.749453    2.873533    0.925873
 ---------------------------------------------------------------------
                    Distance matrix (angstroms):
                    1          2          3          4          5
     1  C    0.000000
     2  C    1.348359   0.000000
     3  H    1.088406   2.132064   0.000000
     4  H    1.088406   2.132064   1.851749   0.000000
     5  H    2.132064   1.088406   2.492709   3.105249   0.000000
     6  H    2.132064   1.088406   3.105249   2.492709   1.851749
                    6
     6  H    0.000000
 Stoichiometry    C2H4
 Framework group  C1[X(C2H4)]
 Deg. of freedom    12
 Full point group                 C1      NOp   1
 Largest Abelian subgroup         C1      NOp   1
 Largest concise Abelian subgroup C1      NOp   1
                         Standard orientation:                         
 ---------------------------------------------------------------------
 Center     Atomic      Atomic             Coordinates (Angstroms)
 Number     Number       Type             X           Y           Z
 ---------------------------------------------------------------------
      1          6           0       -0.674180    0.000000    0.000000
      2          6           0        0.674180    0.000000    0.000000
      3          1           0       -1.246354    0.925875    0.000000
      4          1           0       -1.246354   -0.925875    0.000001
      5          1           0        1.246354    0.925875    0.000001
      6          1           0        1.246354   -0.925875    0.000001
 ---------------------------------------------------------------------
 Rotational constants (GHZ):    146.2405342     29.4327084     24.5014832
 Standard basis: LANL2DZ (5D, 7F)
 There are    26 symmetry adapted cartesian basis functions of A   symmetry.
 There are    26 symmetry adapted basis functions of A   symmetry.
    26 basis functions,    66 primitive gaussians,    26 cartesian basis functions
     8 alpha electrons        8 beta electrons
       nuclear repulsion energy        33.0909733342 Hartrees.
 NAtoms=    6 NActive=    6 NUniq=    6 SFac= 1.00D+00 NAtFMM=   60 NAOKFM=F Big=F
 Integral buffers will be    131072 words long.
 Raffenetti 2 integral format.
 Two-electron integral symmetry is turned on.
 One-electron integrals computed using PRISM.
   1 Symmetry operations used in ECPInt.
 ECPInt:  NShTT=     171 NPrTT=    1149 LenC2=     172 LenP2D=    1046.
 LDataN:  DoStor=T MaxTD1= 2 Len=   12
 NBasis=    26 RedAO= T EigKep=  4.54D-03  NBF=    26
 NBsUse=    26 1.00D-06 EigRej= -1.00D+00 NBFU=    26
 Initial guess from the checkpoint file:  "/scr/Gau-12302.chk"
 B after Tr=     0.000000    0.000000    0.000000
         Rot=    1.000000    0.000000    0.000000    0.000000 Ang=   0.00 deg.
 Keep R1 ints in memory in canonical form, NReq=942616.
 Requested convergence on RMS density matrix=1.00D-08 within 128 cycles.
 Requested convergence on MAX density matrix=1.00D-06.
 Requested convergence on             energy=1.00D-06.
 No special actions if energy rises.
 SCF Done:  E(RB3LYP) =  -78.5782086278     A.U. after    6 cycles
            NFock=  6  Conv=0.15D-08     -V/T= 2.0074
   1 Symmetry operations used in ECPInt.
 ECPInt:  NShTT=     171 NPrTT=    1149 LenC2=     172 LenP2D=    1046.
 LDataN:  DoStor=T MaxTD1= 3 Len=   28
 Calling FoFJK, ICntrl=      2127 FMM=F ISym2X=0 I1Cent= 0 IOpClX= 0 NMat=1 NMatS=1 NMatT=0.
 ***** Axes restored to original set *****
 -------------------------------------------------------------------
 Center     Atomic                   Forces (Hartrees/Bohr)
 Number     Number              X              Y              Z
 -------------------------------------------------------------------
      1        6           0.000332811   -0.000029258   -0.000000009
      2        6          -0.000332806    0.000029516    0.000000002
      3        1          -0.000082905    0.000007263    0.000040488
      4        1          -0.000082919    0.000007254   -0.000040472
      5        1           0.000082913   -0.000007425    0.000040478
      6        1           0.000082907   -0.000007349   -0.000040487
 -------------------------------------------------------------------
 Cartesian Forces:  Max     0.000332811 RMS     0.000119610

 GradGradGradGradGradGradGradGradGradGradGradGradGradGradGradGradGradGrad
 Berny optimization.
 Using GEDIIS/GDIIS optimizer.
 FormGI is forming the generalized inverse of G from B-inverse, IUseBI=4.
 Internal  Forces:  Max     0.000167636 RMS     0.000071311
 Search for a local minimum.
 Step number   3 out of a maximum of   25
 All quantities printed in internal units (Hartrees-Bohrs-Radians)
 Mixed Optimization -- En-DIIS/RFO-DIIS
 Update second derivatives using D2CorX and points    1    2    3
 DE= -1.45D-05 DEPred=-1.35D-05 R= 1.08D+00
 TightC=F SS=  1.41D+00  RLast= 7.02D-03 DXNew= 5.0454D-01 2.1061D-02
 Trust test= 1.08D+00 RLast= 7.02D-03 DXMaxT set to 3.00D-01
 The second derivative matrix:
                          R1        R2        R3        R4        R5
           R1           0.62777
           R2          -0.00089   0.35122
           R3          -0.00089  -0.00008   0.35122
           R4          -0.00089  -0.00008  -0.00009   0.35123
           R5          -0.00089  -0.00008  -0.00008  -0.00008   0.35122
           A1           0.00587  -0.00024  -0.00024  -0.00024  -0.00024
           A2           0.00587  -0.00024  -0.00024  -0.00024  -0.00024
           A3          -0.01174   0.00048   0.00048   0.00048   0.00048
           A4           0.00587  -0.00024  -0.00024  -0.00024  -0.00024
           A5           0.00587  -0.00024  -0.00024  -0.00024  -0.00024
           A6          -0.01174   0.00048   0.00048   0.00048   0.00048
           D1           0.00000   0.00000   0.00000   0.00000   0.00000
           D2           0.00001   0.00000   0.00000   0.00000   0.00000
           D3          -0.00001   0.00000   0.00000   0.00000   0.00000
           D4           0.00000   0.00000   0.00000   0.00000   0.00000
                          A1        A2        A3        A4        A5
           A1           0.16033
           A2           0.00033   0.16033
           A3          -0.00067  -0.00067   0.16134
           A4           0.00033   0.00033  -0.00067   0.16033
           A5           0.00033   0.00033  -0.00067   0.00033   0.16033
           A6          -0.00067  -0.00067   0.00134  -0.00067  -0.00067
           D1           0.00000   0.00000   0.00000   0.00000   0.00000
           D2           0.00000   0.00000   0.00000   0.00000   0.00000
           D3           0.00000   0.00000   0.00000   0.00000   0.00000
           D4           0.00000   0.00000   0.00000   0.00000   0.00000
                          A6        D1        D2        D3        D4
           A6           0.16134
           D1           0.00000   0.03087
           D2           0.00000   0.00000   0.03087
           D3           0.00000   0.00000   0.00000   0.03087
           D4           0.00000   0.00000   0.00000   0.00000   0.03087
 ITU=  1  1  0
 Use linear search instead of GDIIS.
     Eigenvalues ---    0.03087   0.03087   0.03087   0.16000   0.16000
     Eigenvalues ---    0.16000   0.16310   0.35097   0.35131   0.35131
     Eigenvalues ---    0.35131   0.62867
 RFO step:  Lambda=-3.45788664D-07 EMin= 3.08730959D-02
 Quartic linear search produced a step of  0.01689.
 Iteration  1 RMS(Cart)=  0.00035864 RMS(Int)=  0.00000008
 Iteration  2 RMS(Cart)=  0.00000008 RMS(Int)=  0.00000000
 Variable       Old X    -DE/DX   Delta X   Delta X   Delta X     New X
                                 (Linear)    (Quad)   (Total)
    R1        2.54803  -0.00017  -0.00011  -0.00020  -0.00031   2.54772
    R2        2.05679   0.00001   0.00000   0.00003   0.00003   2.05682
    R3        2.05679   0.00001   0.00000   0.00003   0.00003   2.05682
    R4        2.05679   0.00001   0.00000   0.00003   0.00003   2.05682
    R5        2.05679   0.00001   0.00000   0.00003   0.00003   2.05682
    A1        2.12433   0.00006  -0.00001   0.00041   0.00040   2.12473
    A2        2.12433   0.00006  -0.00001   0.00041   0.00040   2.12473
    A3        2.03452  -0.00013   0.00003  -0.00082  -0.00079   2.03372
    A4        2.12433   0.00006  -0.00001   0.00041   0.00040   2.12473
    A5        2.12433   0.00006  -0.00001   0.00041   0.00040   2.12473
    A6        2.03452  -0.00013   0.00003  -0.00082  -0.00079   2.03372
    D1        0.00000   0.00000   0.00000   0.00000   0.00000   0.00000
    D2        3.14159   0.00000   0.00000   0.00000   0.00000  -3.14159
    D3       -3.14159   0.00000   0.00000   0.00000   0.00000   3.14159
    D4        0.00000   0.00000   0.00000   0.00000   0.00000   0.00000
         Item               Value     Threshold  Converged?
 Maximum Force            0.000168     0.000450     YES
 RMS     Force            0.000071     0.000300     YES
 Maximum Displacement     0.000552     0.001800     YES
 RMS     Displacement     0.000359     0.001200     YES
 Predicted change in Energy=-1.767373D-07
 Optimization completed.
    -- Stationary point found.
                           ----------------------------
                           !   Optimized Parameters   !
                           ! (Angstroms and Degrees)  !
 --------------------------                            --------------------------
 ! Name  Definition              Value          Derivative Info.                !
 --------------------------------------------------------------------------------
 ! R1    R(1,2)                  1.3484         -DE/DX =   -0.0002              !
 ! R2    R(1,3)                  1.0884         -DE/DX =    0.0                 !
 ! R3    R(1,4)                  1.0884         -DE/DX =    0.0                 !
 ! R4    R(2,5)                  1.0884         -DE/DX =    0.0                 !
 ! R5    R(2,6)                  1.0884         -DE/DX =    0.0                 !
 ! A1    A(2,1,3)              121.7154         -DE/DX =    0.0001              !
 ! A2    A(2,1,4)              121.7154         -DE/DX =    0.0001              !
 ! A3    A(3,1,4)              116.5693         -DE/DX =   -0.0001              !
 ! A4    A(1,2,5)              121.7154         -DE/DX =    0.0001              !
 ! A5    A(1,2,6)              121.7154         -DE/DX =    0.0001              !
 ! A6    A(5,2,6)              116.5693         -DE/DX =   -0.0001              !
 ! D1    D(3,1,2,5)              0.0001         -DE/DX =    0.0                 !
 ! D2    D(3,1,2,6)           -180.0001         -DE/DX =    0.0                 !
 ! D3    D(4,1,2,5)            180.0002         -DE/DX =    0.0                 !
 ! D4    D(4,1,2,6)              0.0            -DE/DX =    0.0                 !
 --------------------------------------------------------------------------------
 GradGradGradGradGradGradGradGradGradGradGradGradGradGradGradGradGradGrad

                          Input orientation:                          
 ---------------------------------------------------------------------
 Center     Atomic      Atomic             Coordinates (Angstroms)
 Number     Number       Type             X           Y           Z
 ---------------------------------------------------------------------
      1          6           0       -7.662558    3.042315    0.000001
      2          6           0       -6.319392    2.924077   -0.000001
      3          1           0       -8.232497    3.092860   -0.925873
      4          1           0       -8.232560    3.092120    0.925876
      5          1           0       -5.749390    2.874275   -0.925876
      6          1           0       -5.749453    2.873533    0.925873
 ---------------------------------------------------------------------
                    Distance matrix (angstroms):
                    1          2          3          4          5
     1  C    0.000000
     2  C    1.348359   0.000000
     3  H    1.088406   2.132064   0.000000
     4  H    1.088406   2.132064   1.851749   0.000000
     5  H    2.132064   1.088406   2.492709   3.105249   0.000000
     6  H    2.132064   1.088406   3.105249   2.492709   1.851749
                    6
     6  H    0.000000
 Stoichiometry    C2H4
 Framework group  C1[X(C2H4)]
 Deg. of freedom    12
 Full point group                 C1      NOp   1
 Largest Abelian subgroup         C1      NOp   1
 Largest concise Abelian subgroup C1      NOp   1
                         Standard orientation:                         
 ---------------------------------------------------------------------
 Center     Atomic      Atomic             Coordinates (Angstroms)
 Number     Number       Type             X           Y           Z
 ---------------------------------------------------------------------
      1          6           0       -0.674180    0.000000    0.000000
      2          6           0        0.674180    0.000000    0.000000
      3          1           0       -1.246354    0.925875    0.000000
      4          1           0       -1.246354   -0.925875    0.000001
      5          1           0        1.246354    0.925875    0.000001
      6          1           0        1.246354   -0.925875    0.000001
 ---------------------------------------------------------------------
 Rotational constants (GHZ):    146.2405342     29.4327084     24.5014832

 **********************************************************************

            Population analysis using the SCF density.

 **********************************************************************

 Orbital symmetries:
       Occupied  (A) (A) (A) (A) (A) (A) (A) (A)
       Virtual   (A) (A) (A) (A) (A) (A) (A) (A) (A) (A) (A) (A)
                 (A) (A) (A) (A) (A) (A)
 The electronic state is 1-A.
 Alpha  occ. eigenvalues --  -10.19411 -10.19335  -0.76075  -0.58213  -0.46957
 Alpha  occ. eigenvalues --   -0.42165  -0.35785  -0.27274
 Alpha virt. eigenvalues --   -0.00080   0.13468   0.14872   0.19832   0.25561
 Alpha virt. eigenvalues --    0.26171   0.29254   0.31657   0.31691   0.40190
 Alpha virt. eigenvalues --    0.51534   0.60544   0.61061   0.99469   1.04729
 Alpha virt. eigenvalues --    1.12133   1.20620   1.38217
          Condensed to atoms (all electrons):
               1          2          3          4          5          6
     1  C    5.099116   0.595488   0.392105   0.392105  -0.035389  -0.035389
     2  C    0.595488   5.099116  -0.035389  -0.035389   0.392105   0.392105
     3  H    0.392105  -0.035389   0.460282  -0.019850  -0.003082   0.001916
     4  H    0.392105  -0.035389  -0.019850   0.460282   0.001916  -0.003082
     5  H   -0.035389   0.392105  -0.003082   0.001916   0.460282  -0.019850
     6  H   -0.035389   0.392105   0.001916  -0.003082  -0.019850   0.460282
 Mulliken charges:
               1
     1  C   -0.408036
     2  C   -0.408036
     3  H    0.204018
     4  H    0.204018
     5  H    0.204018
     6  H    0.204018
 Sum of Mulliken charges =   0.00000
 Mulliken charges with hydrogens summed into heavy atoms:
               1
     1  C    0.000000
     2  C    0.000000
 Electronic spatial extent (au):  <R**2>=             83.1838
 Charge=              0.0000 electrons
 Dipole moment (field-independent basis, Debye):
    X=              0.0000    Y=              0.0000    Z=              0.0000  Tot=              0.0000
 Quadrupole moment (field-independent basis, Debye-Ang):
   XX=            -11.7722   YY=            -11.8901   ZZ=            -15.7098
   XY=              0.0000   XZ=              0.0000   YZ=              0.0000
 Traceless Quadrupole moment (field-independent basis, Debye-Ang):
   XX=              1.3518   YY=              1.2339   ZZ=             -2.5858
   XY=              0.0000   XZ=              0.0000   YZ=              0.0000
 Octapole moment (field-independent basis, Debye-Ang**2):
  XXX=              0.0000  YYY=              0.0000  ZZZ=              0.0000  XYY=              0.0000
  XXY=              0.0000  XXZ=              0.0000  XZZ=              0.0000  YZZ=              0.0000
  YYZ=              0.0000  XYZ=              0.0000
 Hexadecapole moment (field-independent basis, Debye-Ang**3):
 XXXX=            -65.9226 YYYY=            -24.9723 ZZZZ=            -18.4351 XXXY=              0.0000
 XXXZ=              0.0000 YYYX=              0.0000 YYYZ=              0.0000 ZZZX=              0.0000
 ZZZY=              0.0000 XXYY=            -12.1013 XXZZ=            -15.3676 YYZZ=             -7.9246
 XXYZ=              0.0000 YYXZ=              0.0000 ZZXY=              0.0000
 N-N= 3.309097333420D+01 E-N=-2.476870409204D+02  KE= 7.800069936883D+01
 1\1\GINC-N0288\FOpt\RB3LYP\LANL2DZ\C2H4\GDAVIDS3\21-Feb-2017\0\\#n B3L
 YP/LANL2DZ Opt\\Ethene B3LYP LANL2DZ\\0,1\C,-7.6625576908,3.0423151476
 ,0.0000006641\C,-6.3193923909,2.9240767954,-0.0000006424\H,-8.23249654
 78,3.0928601734,-0.9258732506\H,-8.2325598845,3.0921197742,0.925875678
 5\H,-5.7493900574,2.8742747821,-0.9258757134\H,-5.7494534286,2.8735333
 273,0.9258732739\\Version=ES64L-G09RevE.01\State=1-A\HF=-78.5782086\RM
 SD=1.525e-09\RMSF=1.196e-04\Dipole=0.0000001,0.0000015,0.\Quadrupole=0
 .9825456,-1.8999371,0.9173916,-0.2557235,-0.0001,-0.001136\PG=C01 [X(C
 2H4)]\\@


 ART, GLORY, FREEDOM FAIL, BUT NATURE STILL IS FAIR.

                                           -- BYRON
 Job cpu time:       0 days  0 hours  0 minutes 29.9 seconds.
 File lengths (MBytes):  RWF=      5 Int=      0 D2E=      0 Chk=      1 Scr=      1
 Normal termination of Gaussian 09 at Tue Feb 21 18:06:23 2017.
