 Entering Gaussian System, Link 0=g09
 Input=Ethyne_B3LYP_3-21G.com
 Output=Ethyne_B3LYP_3-21G.log
 Initial command:
 /sw/contrib/gaussian/g09/E01/g09/l1.exe "/scr/Gau-6147.inp" -scrdir="/scr/"
 Entering Link 1 = /sw/contrib/gaussian/g09/E01/g09/l1.exe PID=      6148.
  
 Copyright (c) 1988,1990,1992,1993,1995,1998,2003,2009,2015,
            Gaussian, Inc.  All Rights Reserved.
  
 This is part of the Gaussian(R) 09 program.  It is based on
 the Gaussian(R) 03 system (copyright 2003, Gaussian, Inc.),
 the Gaussian(R) 98 system (copyright 1998, Gaussian, Inc.),
 the Gaussian(R) 94 system (copyright 1995, Gaussian, Inc.),
 the Gaussian 92(TM) system (copyright 1992, Gaussian, Inc.),
 the Gaussian 90(TM) system (copyright 1990, Gaussian, Inc.),
 the Gaussian 88(TM) system (copyright 1988, Gaussian, Inc.),
 the Gaussian 86(TM) system (copyright 1986, Carnegie Mellon
 University), and the Gaussian 82(TM) system (copyright 1983,
 Carnegie Mellon University). Gaussian is a federally registered
 trademark of Gaussian, Inc.
  
 This software contains proprietary and confidential information,
 including trade secrets, belonging to Gaussian, Inc.
  
 This software is provided under written license and may be
 used, copied, transmitted, or stored only in accord with that
 written license.
  
 The following legend is applicable only to US Government
 contracts under FAR:
  
                    RESTRICTED RIGHTS LEGEND
  
 Use, reproduction and disclosure by the US Government is
 subject to restrictions as set forth in subparagraphs (a)
 and (c) of the Commercial Computer Software - Restricted
 Rights clause in FAR 52.227-19.
  
 Gaussian, Inc.
 340 Quinnipiac St., Bldg. 40, Wallingford CT 06492
  
  
 ---------------------------------------------------------------
 Warning -- This program may not be used in any manner that
 competes with the business of Gaussian, Inc. or will provide
 assistance to any competitor of Gaussian, Inc.  The licensee
 of this program is prohibited from giving any competitor of
 Gaussian, Inc. access to this program.  By using this program,
 the user acknowledges that Gaussian, Inc. is engaged in the
 business of creating and licensing software in the field of
 computational chemistry and represents and warrants to the
 licensee that it is not a competitor of Gaussian, Inc. and that
 it will not use this program in any manner prohibited above.
 ---------------------------------------------------------------
  

 Cite this work as:
 Gaussian 09, Revision E.01,
 M. J. Frisch, G. W. Trucks, H. B. Schlegel, G. E. Scuseria, 
 M. A. Robb, J. R. Cheeseman, G. Scalmani, V. Barone, B. Mennucci, 
 G. A. Petersson, H. Nakatsuji, M. Caricato, X. Li, H. P. Hratchian, 
 A. F. Izmaylov, J. Bloino, G. Zheng, J. L. Sonnenberg, M. Hada, 
 M. Ehara, K. Toyota, R. Fukuda, J. Hasegawa, M. Ishida, T. Nakajima, 
 Y. Honda, O. Kitao, H. Nakai, T. Vreven, J. A. Montgomery, Jr., 
 J. E. Peralta, F. Ogliaro, M. Bearpark, J. J. Heyd, E. Brothers, 
 K. N. Kudin, V. N. Staroverov, T. Keith, R. Kobayashi, J. Normand, 
 K. Raghavachari, A. Rendell, J. C. Burant, S. S. Iyengar, J. Tomasi, 
 M. Cossi, N. Rega, J. M. Millam, M. Klene, J. E. Knox, J. B. Cross, 
 V. Bakken, C. Adamo, J. Jaramillo, R. Gomperts, R. E. Stratmann, 
 O. Yazyev, A. J. Austin, R. Cammi, C. Pomelli, J. W. Ochterski, 
 R. L. Martin, K. Morokuma, V. G. Zakrzewski, G. A. Voth, 
 P. Salvador, J. J. Dannenberg, S. Dapprich, A. D. Daniels, 
 O. Farkas, J. B. Foresman, J. V. Ortiz, J. Cioslowski, 
 and D. J. Fox, Gaussian, Inc., Wallingford CT, 2013.
 
 ******************************************
 Gaussian 09:  ES64L-G09RevE.01 30-Nov-2015
                21-Feb-2017 
 ******************************************
 %NProcShared=8
 Will use up to    8 processors via shared memory.
 ------------------
 #n B3LYP/3-21G Opt
 ------------------
 1/14=-1,18=20,19=15,26=3,38=1/1,3;
 2/9=110,12=2,17=6,18=5,40=1/2;
 3/5=5,11=2,16=1,25=1,30=1,71=1,74=-5/1,2,3;
 4//1;
 5/5=2,38=5/2;
 6/7=2,8=2,9=2,10=2,28=1/1;
 7//1,2,3,16;
 1/14=-1,18=20,19=15,26=3/3(2);
 2/9=110/2;
 99//99;
 2/9=110/2;
 3/5=5,11=2,16=1,25=1,30=1,71=1,74=-5/1,2,3;
 4/5=5,16=3,69=1/1;
 5/5=2,38=5/2;
 7//1,2,3,16;
 1/14=-1,18=20,19=15,26=3/3(-5);
 2/9=110/2;
 6/7=2,8=2,9=2,10=2,19=2,28=1/1;
 99/9=1/99;
 ------------------
 Ethyne B3LYP 3-21G
 ------------------
 Symbolic Z-matrix:
 Charge =  0 Multiplicity = 1
 C                    -8.44511   3.24911   0. 
 C                    -7.23998   3.27154   0. 
 H                    -9.50331   3.22942   0. 
 H                    -6.18178   3.29124   0. 
 

 GradGradGradGradGradGradGradGradGradGradGradGradGradGradGradGradGradGrad
 Berny optimization.
 Initialization pass.
                           ----------------------------
                           !    Initial Parameters    !
                           ! (Angstroms and Degrees)  !
 --------------------------                            --------------------------
 ! Name  Definition              Value          Derivative Info.                !
 --------------------------------------------------------------------------------
 ! R1    R(1,2)                  1.2053         estimate D2E/DX2                !
 ! R2    R(1,3)                  1.0584         estimate D2E/DX2                !
 ! R3    R(2,4)                  1.0584         estimate D2E/DX2                !
 ! A1    L(2,1,3,-3,-1)        180.0003         estimate D2E/DX2                !
 ! A2    L(1,2,4,-3,-1)        179.9997         estimate D2E/DX2                !
 ! A3    L(2,1,3,-2,-2)        180.0            estimate D2E/DX2                !
 ! A4    L(1,2,4,-2,-2)        180.0            estimate D2E/DX2                !
 --------------------------------------------------------------------------------
 Trust Radius=3.00D-01 FncErr=1.00D-07 GrdErr=1.00D-06
 Number of steps in this run=     20 maximum allowed number of steps=    100.
 GradGradGradGradGradGradGradGradGradGradGradGradGradGradGradGradGradGrad

                          Input orientation:                          
 ---------------------------------------------------------------------
 Center     Atomic      Atomic             Coordinates (Angstroms)
 Number     Number       Type             X           Y           Z
 ---------------------------------------------------------------------
      1          6           0       -8.445110    3.249110    0.000000
      2          6           0       -7.239980    3.271540    0.000000
      3          1           0       -9.503310    3.229420    0.000000
      4          1           0       -6.181780    3.291240    0.000000
 ---------------------------------------------------------------------
                    Distance matrix (angstroms):
                    1          2          3          4
     1  C    0.000000
     2  C    1.205339   0.000000
     3  H    1.058383   2.263722   0.000000
     4  H    2.263722   1.058383   3.322105   0.000000
 Stoichiometry    C2H2
 Framework group  D*H[C*(C.C),X(H2)]
 NUMDOF-- UNRECOGNIZED SYMMETRIC SUBSPACE, ICHAR= X   "
 Deg. of freedom    -1
 Full point group                         NOp   0
 Largest Abelian subgroup         D2H     NOp   8
 Largest concise Abelian subgroup C2      NOp   2
                         Standard orientation:                         
 ---------------------------------------------------------------------
 Center     Atomic      Atomic             Coordinates (Angstroms)
 Number     Number       Type             X           Y           Z
 ---------------------------------------------------------------------
      1          6           0        0.000000    0.000000   -0.602669
      2          6           0        0.000000    0.000000    0.602669
      3          1           0        0.000000    0.000000   -1.661053
      4          1           0        0.000000    0.000000    1.661053
 ---------------------------------------------------------------------
 Rotational constants (GHZ):      0.0000000     35.3946027     35.3946027
 Standard basis: 3-21G (6D, 7F)
 There are     7 symmetry adapted cartesian basis functions of AG  symmetry.
 There are     0 symmetry adapted cartesian basis functions of B1G symmetry.
 There are     2 symmetry adapted cartesian basis functions of B2G symmetry.
 There are     2 symmetry adapted cartesian basis functions of B3G symmetry.
 There are     0 symmetry adapted cartesian basis functions of AU  symmetry.
 There are     7 symmetry adapted cartesian basis functions of B1U symmetry.
 There are     2 symmetry adapted cartesian basis functions of B2U symmetry.
 There are     2 symmetry adapted cartesian basis functions of B3U symmetry.
 There are     7 symmetry adapted basis functions of AG  symmetry.
 There are     0 symmetry adapted basis functions of B1G symmetry.
 There are     2 symmetry adapted basis functions of B2G symmetry.
 There are     2 symmetry adapted basis functions of B3G symmetry.
 There are     0 symmetry adapted basis functions of AU  symmetry.
 There are     7 symmetry adapted basis functions of B1U symmetry.
 There are     2 symmetry adapted basis functions of B2U symmetry.
 There are     2 symmetry adapted basis functions of B3U symmetry.
    22 basis functions,    36 primitive gaussians,    22 cartesian basis functions
     7 alpha electrons        7 beta electrons
       nuclear repulsion energy        24.7692980314 Hartrees.
 NAtoms=    4 NActive=    4 NUniq=    2 SFac= 4.00D+00 NAtFMM=   60 NAOKFM=F Big=F
 Integral buffers will be    131072 words long.
 Raffenetti 2 integral format.
 Two-electron integral symmetry is turned on.
 One-electron integrals computed using PRISM.
 NBasis=    22 RedAO= T EigKep=  3.31D-03  NBF=     7     0     2     2     0     7     2     2
 NBsUse=    22 1.00D-06 EigRej= -1.00D+00 NBFU=     7     0     2     2     0     7     2     2
 ExpMin= 1.83D-01 ExpMax= 1.72D+02 ExpMxC= 1.72D+02 IAcc=1 IRadAn=         1 AccDes= 0.00D+00
 Harris functional with IExCor=  402 and IRadAn=       1 diagonalized for initial guess.
 HarFok:  IExCor=  402 AccDes= 0.00D+00 IRadAn=         1 IDoV= 1 UseB2=F ITyADJ=14
 ICtDFT=  3500011 ScaDFX=  1.000000  1.000000  1.000000  1.000000
 FoFCou: FMM=F IPFlag=           0 FMFlag=      100000 FMFlg1=           0
         NFxFlg=           0 DoJE=T BraDBF=F KetDBF=T FulRan=T
         wScrn=  0.000000 ICntrl=     500 IOpCl=  0 I1Cent=   200000004 NGrid=           0
         NMat0=    1 NMatS0=      1 NMatT0=    0 NMatD0=    1 NMtDS0=    0 NMtDT0=    0
 Petite list used in FoFCou.
 Initial guess orbital symmetries:
       Occupied  (SGU) (SGG) (SGG) (SGU) (SGG) (PIU) (PIU)
       Virtual   (PIG) (PIG) (SGU) (SGG) (SGU) (PIU) (PIU) (SGG)
                 (PIG) (PIG) (SGU) (SGG) (SGU) (SGG) (SGU)
 The electronic state of the initial guess is 1-SGG.
 Keep R1 ints in memory in symmetry-blocked form, NReq=913759.
 Requested convergence on RMS density matrix=1.00D-08 within 128 cycles.
 Requested convergence on MAX density matrix=1.00D-06.
 Requested convergence on             energy=1.00D-06.
 No special actions if energy rises.
 Integral accuracy reduced to 1.0D-05 until final iterations.
 Initial convergence to 1.0D-05 achieved.  Increase integral accuracy.
 SCF Done:  E(RB3LYP) =  -76.9071551517     A.U. after    8 cycles
            NFock=  8  Conv=0.98D-08     -V/T= 2.0102

 **********************************************************************

            Population analysis using the SCF density.

 **********************************************************************

 Orbital symmetries:
       Occupied  (SGG) (SGU) (SGG) (SGU) (SGG) (PIU) (PIU)
       Virtual   (PIG) (PIG) (SGU) (SGG) (SGU) (PIU) (PIU) (SGG)
                 (PIG) (PIG) (SGU) (SGG) (SGG) (SGU) (SGU)
 The electronic state is 1-SGG.
 Alpha  occ. eigenvalues --  -10.12929 -10.12888  -0.75305  -0.56682  -0.50046
 Alpha  occ. eigenvalues --   -0.28999  -0.28999
 Alpha virt. eigenvalues --    0.05552   0.05552   0.12348   0.17201   0.48394
 Alpha virt. eigenvalues --    0.71288   0.71288   0.71476   0.81641   0.81641
 Alpha virt. eigenvalues --    1.02513   1.08291   1.25697   1.30578   2.00661
          Condensed to atoms (all electrons):
               1          2          3          4
     1  C    4.928063   0.972349   0.372441  -0.025224
     2  C    0.972349   4.928063  -0.025224   0.372441
     3  H    0.372441  -0.025224   0.404486   0.000668
     4  H   -0.025224   0.372441   0.000668   0.404486
 Mulliken charges:
               1
     1  C   -0.247629
     2  C   -0.247629
     3  H    0.247629
     4  H    0.247629
 Sum of Mulliken charges =   0.00000
 Mulliken charges with hydrogens summed into heavy atoms:
               1
     1  C    0.000000
     2  C    0.000000
 Electronic spatial extent (au):  <R**2>=             60.1309
 Charge=              0.0000 electrons
 Dipole moment (field-independent basis, Debye):
    X=              0.0000    Y=              0.0000    Z=              0.0000  Tot=              0.0000
 Quadrupole moment (field-independent basis, Debye-Ang):
   XX=            -13.2431   YY=            -13.2431   ZZ=             -6.9522
   XY=              0.0000   XZ=              0.0000   YZ=              0.0000
 Traceless Quadrupole moment (field-independent basis, Debye-Ang):
   XX=             -2.0970   YY=             -2.0970   ZZ=              4.1939
   XY=              0.0000   XZ=              0.0000   YZ=              0.0000
 Octapole moment (field-independent basis, Debye-Ang**2):
  XXX=              0.0000  YYY=              0.0000  ZZZ=              0.0000  XYY=              0.0000
  XXY=              0.0000  XXZ=              0.0000  XZZ=              0.0000  YZZ=              0.0000
  YYZ=              0.0000  XYZ=              0.0000
 Hexadecapole moment (field-independent basis, Debye-Ang**3):
 XXXX=            -13.5141 YYYY=            -13.5141 ZZZZ=            -36.2577 XXXY=              0.0000
 XXXZ=              0.0000 YYYX=              0.0000 YYYZ=              0.0000 ZZZX=              0.0000
 ZZZY=              0.0000 XXYY=             -4.5047 XXZZ=            -11.5899 YYZZ=            -11.5899
 XXYZ=              0.0000 YYXZ=              0.0000 ZZXY=              0.0000
 N-N= 2.476929803136D+01 E-N=-2.274875818798D+02  KE= 7.612715752458D+01
 Symmetry AG   KE= 3.762839359189D+01
 Symmetry B1G  KE= 0.000000000000D+00
 Symmetry B2G  KE= 6.438861170927D-33
 Symmetry B3G  KE= 8.655299273963D-32
 Symmetry AU   KE= 0.000000000000D+00
 Symmetry B1U  KE= 3.406528627168D+01
 Symmetry B2U  KE= 2.216738830506D+00
 Symmetry B3U  KE= 2.216738830506D+00
 Calling FoFJK, ICntrl=      2127 FMM=F ISym2X=1 I1Cent= 0 IOpClX= 0 NMat=1 NMatS=1 NMatT=0.
 ***** Axes restored to original set *****
 -------------------------------------------------------------------
 Center     Atomic                   Forces (Hartrees/Bohr)
 Number     Number              X              Y              Z
 -------------------------------------------------------------------
      1        6           0.006859138    0.000127662    0.000000000
      2        6          -0.006859138   -0.000127662    0.000000000
      3        1          -0.003089118   -0.000057495    0.000000000
      4        1           0.003089118    0.000057495    0.000000000
 -------------------------------------------------------------------
 Cartesian Forces:  Max     0.006859138 RMS     0.003071645

 GradGradGradGradGradGradGradGradGradGradGradGradGradGradGradGradGradGrad
 Berny optimization.
 FormGI is forming the generalized inverse of G from B-inverse, IUseBI=4.
 Internal  Forces:  Max     0.003770672 RMS     0.002181411
 Search for a local minimum.
 Step number   1 out of a maximum of   20
 All quantities printed in internal units (Hartrees-Bohrs-Radians)
 Mixed Optimization -- RFO/linear search
 Second derivative matrix not updated -- first step.
 The second derivative matrix:
                          R1        R2        R3        A1        A2
           R1           1.02186
           R2           0.00000   0.38738
           R3           0.00000   0.00000   0.38738
           A1           0.00000   0.00000   0.00000   0.00653
           A2           0.00000   0.00000   0.00000   0.00000   0.00653
           A3           0.00000   0.00000   0.00000   0.00000   0.00000
           A4           0.00000   0.00000   0.00000   0.00000   0.00000
                          A3        A4
           A3           0.00653
           A4           0.00000   0.00653
 ITU=  0
     Eigenvalues ---    0.00653   0.00653   0.00653   0.00653   0.38738
     Eigenvalues ---    0.38738   1.02186
 RFO step:  Lambda=-6.31988899D-05 EMin= 6.53060099D-03
 Linear search not attempted -- first point.
 Iteration  1 RMS(Cart)=  0.00342161 RMS(Int)=  0.00000001
 Iteration  2 RMS(Cart)=  0.00000001 RMS(Int)=  0.00000001
 ClnCor:  largest displacement from symmetrization is 1.78D-08 for atom     1.
 Variable       Old X    -DE/DX   Delta X   Delta X   Delta X     New X
                                 (Linear)    (Quad)   (Total)
    R1        2.27776  -0.00377   0.00000  -0.00369  -0.00369   2.27407
    R2        2.00005   0.00309   0.00000   0.00797   0.00797   2.00803
    R3        2.00005   0.00309   0.00000   0.00797   0.00797   2.00803
    A1        3.14159   0.00000   0.00000   0.00000   0.00000   3.14159
    A2        3.14159   0.00000   0.00000   0.00000   0.00000   3.14159
    A3        3.14159   0.00000   0.00000   0.00000   0.00000   3.14159
    A4        3.14159   0.00000   0.00000   0.00000   0.00000   3.14159
         Item               Value     Threshold  Converged?
 Maximum Force            0.003771     0.000450     NO 
 RMS     Force            0.002181     0.000300     NO 
 Maximum Displacement     0.006129     0.001800     NO 
 RMS     Displacement     0.003422     0.001200     NO 
 Predicted change in Energy=-3.159944D-05
 GradGradGradGradGradGradGradGradGradGradGradGradGradGradGradGradGradGrad

                          Input orientation:                          
 ---------------------------------------------------------------------
 Center     Atomic      Atomic             Coordinates (Angstroms)
 Number     Number       Type             X           Y           Z
 ---------------------------------------------------------------------
      1          6           0       -8.444134    3.249129    0.000000
      2          6           0       -7.240956    3.271522    0.000000
      3          1           0       -9.506553    3.229355    0.000000
      4          1           0       -6.178537    3.291296    0.000000
 ---------------------------------------------------------------------
                    Distance matrix (angstroms):
                    1          2          3          4
     1  C    0.000000
     2  C    1.203386   0.000000
     3  H    1.062603   2.265989   0.000000
     4  H    2.265989   1.062603   3.328592   0.000000
 Stoichiometry    C2H2
 Framework group  D*H[C*(HC.CH)]
 Deg. of freedom     2
 Full point group                 D*H     NOp   8
 Omega: Change in point group or standard orientation.

 Old FWG=D*H  [C*(C1.C1),X(H2)]
 New FWG=D*H  [C*(H1C1.C1H1)]
 Largest Abelian subgroup         D2H     NOp   8
 Largest concise Abelian subgroup C2      NOp   2
                         Standard orientation:                         
 ---------------------------------------------------------------------
 Center     Atomic      Atomic             Coordinates (Angstroms)
 Number     Number       Type             X           Y           Z
 ---------------------------------------------------------------------
      1          6           0        0.000000    0.000000   -0.601693
      2          6           0        0.000000    0.000000    0.601693
      3          1           0        0.000000    0.000000   -1.664296
      4          1           0        0.000000    0.000000    1.664296
 ---------------------------------------------------------------------
 Rotational constants (GHZ):      0.0000000     35.4106673     35.4106673
 Standard basis: 3-21G (6D, 7F)
 There are     7 symmetry adapted cartesian basis functions of AG  symmetry.
 There are     0 symmetry adapted cartesian basis functions of B1G symmetry.
 There are     2 symmetry adapted cartesian basis functions of B2G symmetry.
 There are     2 symmetry adapted cartesian basis functions of B3G symmetry.
 There are     0 symmetry adapted cartesian basis functions of AU  symmetry.
 There are     7 symmetry adapted cartesian basis functions of B1U symmetry.
 There are     2 symmetry adapted cartesian basis functions of B2U symmetry.
 There are     2 symmetry adapted cartesian basis functions of B3U symmetry.
 There are     7 symmetry adapted basis functions of AG  symmetry.
 There are     0 symmetry adapted basis functions of B1G symmetry.
 There are     2 symmetry adapted basis functions of B2G symmetry.
 There are     2 symmetry adapted basis functions of B3G symmetry.
 There are     0 symmetry adapted basis functions of AU  symmetry.
 There are     7 symmetry adapted basis functions of B1U symmetry.
 There are     2 symmetry adapted basis functions of B2U symmetry.
 There are     2 symmetry adapted basis functions of B3U symmetry.
    22 basis functions,    36 primitive gaussians,    22 cartesian basis functions
     7 alpha electrons        7 beta electrons
       nuclear repulsion energy        24.7679978580 Hartrees.
 NAtoms=    4 NActive=    4 NUniq=    2 SFac= 4.00D+00 NAtFMM=   60 NAOKFM=F Big=F
 Integral buffers will be    131072 words long.
 Raffenetti 2 integral format.
 Two-electron integral symmetry is turned on.
 One-electron integrals computed using PRISM.
 NBasis=    22 RedAO= T EigKep=  3.29D-03  NBF=     7     0     2     2     0     7     2     2
 NBsUse=    22 1.00D-06 EigRej= -1.00D+00 NBFU=     7     0     2     2     0     7     2     2
 Initial guess from the checkpoint file:  "/scr/Gau-6148.chk"
 B after Tr=     0.000000    0.000000    0.000000
         Rot=    1.000000    0.000000    0.000000    0.000000 Ang=   0.00 deg.
 Initial guess orbital symmetries:
       Occupied  (SGG) (SGU) (SGG) (SGU) (SGG) (PIU) (PIU)
       Virtual   (SGG) (SGG) (SGG) (SGG) (PIG) (PIG) (PIG) (PIG)
                 (SGU) (SGU) (SGU) (SGU) (SGU) (PIU) (PIU)
 Keep R1 ints in memory in symmetry-blocked form, NReq=913759.
 Requested convergence on RMS density matrix=1.00D-08 within 128 cycles.
 Requested convergence on MAX density matrix=1.00D-06.
 Requested convergence on             energy=1.00D-06.
 No special actions if energy rises.
 SCF Done:  E(RB3LYP) =  -76.9071831950     A.U. after    6 cycles
            NFock=  6  Conv=0.25D-08     -V/T= 2.0103
 Calling FoFJK, ICntrl=      2127 FMM=F ISym2X=1 I1Cent= 0 IOpClX= 0 NMat=1 NMatS=1 NMatT=0.
 ***** Axes restored to original set *****
 -------------------------------------------------------------------
 Center     Atomic                   Forces (Hartrees/Bohr)
 Number     Number              X              Y              Z
 -------------------------------------------------------------------
      1        6          -0.000882937   -0.000016433    0.000000000
      2        6           0.000882937    0.000016433    0.000000000
      3        1           0.000297747    0.000005542    0.000000000
      4        1          -0.000297747   -0.000005542    0.000000000
 -------------------------------------------------------------------
 Cartesian Forces:  Max     0.000882937 RMS     0.000380467

 GradGradGradGradGradGradGradGradGradGradGradGradGradGradGradGradGradGrad
 Berny optimization.
 Using GEDIIS/GDIIS optimizer.
 Internal  Forces:  Max     0.000585292 RMS     0.000272537
 Search for a local minimum.
 Step number   2 out of a maximum of   20
 All quantities printed in internal units (Hartrees-Bohrs-Radians)
 Mixed Optimization -- En-DIIS/RFO-DIIS
 Update second derivatives using D2CorX and points    1    2
 DE= -2.80D-05 DEPred=-3.16D-05 R= 8.87D-01
 TightC=F SS=  1.41D+00  RLast= 1.19D-02 DXNew= 5.0454D-01 3.5598D-02
 Trust test= 8.87D-01 RLast= 1.19D-02 DXMaxT set to 3.00D-01
 The second derivative matrix:
                          R1        R2        R3        A1        A2
           R1           1.06753
           R2          -0.02615   0.40003
           R3          -0.02615   0.01265   0.40003
           A1           0.00000   0.00000   0.00000   0.00653
           A2           0.00000   0.00000   0.00000   0.00000   0.00653
           A3           0.00000   0.00000   0.00000   0.00000   0.00000
           A4           0.00000   0.00000   0.00000   0.00000   0.00000
                          A3        A4
           A3           0.00653
           A4           0.00000   0.00653
 ITU=  1  0
 Use linear search instead of GDIIS.
     Eigenvalues ---    0.00653   0.00653   0.00653   0.00653   0.38738
     Eigenvalues ---    0.41061   1.06961
 RFO step:  Lambda=-2.97946650D-08 EMin= 6.53060099D-03
 Quartic linear search produced a step of -0.09931.
 Iteration  1 RMS(Cart)=  0.00027181 RMS(Int)=  0.00000000
 Iteration  2 RMS(Cart)=  0.00000000 RMS(Int)=  0.00000001
 ClnCor:  largest displacement from symmetrization is 1.15D-12 for atom     1.
 Variable       Old X    -DE/DX   Delta X   Delta X   Delta X     New X
                                 (Linear)    (Quad)   (Total)
    R1        2.27407   0.00059   0.00037   0.00015   0.00052   2.27459
    R2        2.00803  -0.00030  -0.00079   0.00010  -0.00070   2.00733
    R3        2.00803  -0.00030  -0.00079   0.00010  -0.00070   2.00733
    A1        3.14159   0.00000   0.00000   0.00000   0.00000   3.14159
    A2        3.14159   0.00000   0.00000   0.00000   0.00000   3.14159
    A3        3.14159   0.00000   0.00000   0.00000   0.00000   3.14159
    A4        3.14159   0.00000   0.00000   0.00000   0.00000   3.14159
         Item               Value     Threshold  Converged?
 Maximum Force            0.000585     0.000450     NO 
 RMS     Force            0.000273     0.000300     YES
 Maximum Displacement     0.000438     0.001800     YES
 RMS     Displacement     0.000272     0.001200     YES
 Predicted change in Energy=-3.557363D-07
 GradGradGradGradGradGradGradGradGradGradGradGradGradGradGradGradGradGrad

                          Input orientation:                          
 ---------------------------------------------------------------------
 Center     Atomic      Atomic             Coordinates (Angstroms)
 Number     Number       Type             X           Y           Z
 ---------------------------------------------------------------------
      1          6           0       -8.444270    3.249126    0.000000
      2          6           0       -7.240820    3.271525    0.000000
      3          1           0       -9.506321    3.229360    0.000000
      4          1           0       -6.178769    3.291292    0.000000
 ---------------------------------------------------------------------
                    Distance matrix (angstroms):
                    1          2          3          4
     1  C    0.000000
     2  C    1.203659   0.000000
     3  H    1.062235   2.265894   0.000000
     4  H    2.265894   1.062235   3.328128   0.000000
 Stoichiometry    C2H2
 Framework group  D*H[C*(HC.CH)]
 Deg. of freedom     2
 Full point group                 D*H     NOp   8
 Largest Abelian subgroup         D2H     NOp   8
 Largest concise Abelian subgroup C2      NOp   2
                         Standard orientation:                         
 ---------------------------------------------------------------------
 Center     Atomic      Atomic             Coordinates (Angstroms)
 Number     Number       Type             X           Y           Z
 ---------------------------------------------------------------------
      1          6           0        0.000000    0.000000   -0.601829
      2          6           0        0.000000    0.000000    0.601829
      3          1           0        0.000000    0.000000   -1.664064
      4          1           0        0.000000    0.000000    1.664064
 ---------------------------------------------------------------------
 Rotational constants (GHZ):      0.0000000     35.4047556     35.4047556
 Standard basis: 3-21G (6D, 7F)
 There are     7 symmetry adapted cartesian basis functions of AG  symmetry.
 There are     0 symmetry adapted cartesian basis functions of B1G symmetry.
 There are     2 symmetry adapted cartesian basis functions of B2G symmetry.
 There are     2 symmetry adapted cartesian basis functions of B3G symmetry.
 There are     0 symmetry adapted cartesian basis functions of AU  symmetry.
 There are     7 symmetry adapted cartesian basis functions of B1U symmetry.
 There are     2 symmetry adapted cartesian basis functions of B2U symmetry.
 There are     2 symmetry adapted cartesian basis functions of B3U symmetry.
 There are     7 symmetry adapted basis functions of AG  symmetry.
 There are     0 symmetry adapted basis functions of B1G symmetry.
 There are     2 symmetry adapted basis functions of B2G symmetry.
 There are     2 symmetry adapted basis functions of B3G symmetry.
 There are     0 symmetry adapted basis functions of AU  symmetry.
 There are     7 symmetry adapted basis functions of B1U symmetry.
 There are     2 symmetry adapted basis functions of B2U symmetry.
 There are     2 symmetry adapted basis functions of B3U symmetry.
    22 basis functions,    36 primitive gaussians,    22 cartesian basis functions
     7 alpha electrons        7 beta electrons
       nuclear repulsion energy        24.7666231705 Hartrees.
 NAtoms=    4 NActive=    4 NUniq=    2 SFac= 4.00D+00 NAtFMM=   60 NAOKFM=F Big=F
 Integral buffers will be    131072 words long.
 Raffenetti 2 integral format.
 Two-electron integral symmetry is turned on.
 One-electron integrals computed using PRISM.
 NBasis=    22 RedAO= T EigKep=  3.30D-03  NBF=     7     0     2     2     0     7     2     2
 NBsUse=    22 1.00D-06 EigRej= -1.00D+00 NBFU=     7     0     2     2     0     7     2     2
 Initial guess from the checkpoint file:  "/scr/Gau-6148.chk"
 B after Tr=     0.000000    0.000000    0.000000
         Rot=    1.000000    0.000000    0.000000    0.000000 Ang=   0.00 deg.
 Initial guess orbital symmetries:
       Occupied  (SGG) (SGU) (SGG) (SGU) (SGG) (PIU) (PIU)
       Virtual   (SGG) (SGG) (SGG) (SGG) (PIG) (PIG) (PIG) (PIG)
                 (SGU) (SGU) (SGU) (SGU) (SGU) (PIU) (PIU)
 Keep R1 ints in memory in symmetry-blocked form, NReq=913759.
 Requested convergence on RMS density matrix=1.00D-08 within 128 cycles.
 Requested convergence on MAX density matrix=1.00D-06.
 Requested convergence on             energy=1.00D-06.
 No special actions if energy rises.
 SCF Done:  E(RB3LYP) =  -76.9071835510     A.U. after    5 cycles
            NFock=  5  Conv=0.91D-08     -V/T= 2.0103
 Calling FoFJK, ICntrl=      2127 FMM=F ISym2X=1 I1Cent= 0 IOpClX= 0 NMat=1 NMatS=1 NMatT=0.
 ***** Axes restored to original set *****
 -------------------------------------------------------------------
 Center     Atomic                   Forces (Hartrees/Bohr)
 Number     Number              X              Y              Z
 -------------------------------------------------------------------
      1        6           0.000014644    0.000000273    0.000000000
      2        6          -0.000014644   -0.000000273    0.000000000
      3        1           0.000003651    0.000000068    0.000000000
      4        1          -0.000003651   -0.000000068    0.000000000
 -------------------------------------------------------------------
 Cartesian Forces:  Max     0.000014644 RMS     0.000006163

 GradGradGradGradGradGradGradGradGradGradGradGradGradGradGradGradGradGrad
 Berny optimization.
 Using GEDIIS/GDIIS optimizer.
 Internal  Forces:  Max     0.000018298 RMS     0.000007186
 Search for a local minimum.
 Step number   3 out of a maximum of   20
 All quantities printed in internal units (Hartrees-Bohrs-Radians)
 Mixed Optimization -- En-DIIS/RFO-DIIS
 Swapping is turned off.
 Update second derivatives using D2CorX and points    1    3
 DE= -3.56D-07 DEPred=-3.56D-07 R= 1.00D+00
 Trust test= 1.00D+00 RLast= 1.11D-03 DXMaxT set to 3.00D-01
 The second derivative matrix:
                          R1        R2        R3        A1        A2
           R1           1.06511
           R2          -0.02551   0.40062
           R3          -0.02551   0.01325   0.40062
           A1           0.00000   0.00000   0.00000   0.00653
           A2           0.00000   0.00000   0.00000   0.00000   0.00653
           A3           0.00000   0.00000   0.00000   0.00000   0.00000
           A4           0.00000   0.00000   0.00000   0.00000   0.00000
                          A3        A4
           A3           0.00653
           A4           0.00000   0.00653
 ITU=  0  1  0
     Eigenvalues ---    0.00653   0.00653   0.00653   0.00653   0.38738
     Eigenvalues ---    0.41188   1.06710
 En-DIIS/RFO-DIIS IScMMF=        0 using points:     3    2
 RFO step:  Lambda= 0.00000000D+00.
 DidBck=F Rises=F RFO-DIIS coefs:    0.99331    0.00669
 Iteration  1 RMS(Cart)=  0.00001097 RMS(Int)=  0.00000000
 Iteration  2 RMS(Cart)=  0.00000000 RMS(Int)=  0.00000000
 ClnCor:  largest displacement from symmetrization is 8.47D-13 for atom     1.
 Variable       Old X    -DE/DX   Delta X   Delta X   Delta X     New X
                                 (Linear)    (Quad)   (Total)
    R1        2.27459  -0.00002   0.00000  -0.00001  -0.00002   2.27457
    R2        2.00733   0.00000   0.00000  -0.00001  -0.00001   2.00732
    R3        2.00733   0.00000   0.00000  -0.00001  -0.00001   2.00732
    A1        3.14159   0.00000   0.00000   0.00000   0.00000   3.14159
    A2        3.14159   0.00000   0.00000   0.00000   0.00000   3.14159
    A3        3.14159   0.00000   0.00000   0.00000   0.00000   3.14159
    A4        3.14159   0.00000   0.00000   0.00000   0.00000   3.14159
         Item               Value     Threshold  Converged?
 Maximum Force            0.000018     0.000450     YES
 RMS     Force            0.000007     0.000300     YES
 Maximum Displacement     0.000019     0.001800     YES
 RMS     Displacement     0.000011     0.001200     YES
 Predicted change in Energy=-1.977047D-10
 Optimization completed.
    -- Stationary point found.
                           ----------------------------
                           !   Optimized Parameters   !
                           ! (Angstroms and Degrees)  !
 --------------------------                            --------------------------
 ! Name  Definition              Value          Derivative Info.                !
 --------------------------------------------------------------------------------
 ! R1    R(1,2)                  1.2037         -DE/DX =    0.0                 !
 ! R2    R(1,3)                  1.0622         -DE/DX =    0.0                 !
 ! R3    R(2,4)                  1.0622         -DE/DX =    0.0                 !
 ! A1    L(2,1,3,-3,-1)        180.0            -DE/DX =    0.0                 !
 ! A2    L(1,2,4,-3,-1)        180.0            -DE/DX =    0.0                 !
 ! A3    L(2,1,3,-2,-2)        180.0            -DE/DX =    0.0                 !
 ! A4    L(1,2,4,-2,-2)        180.0            -DE/DX =    0.0                 !
 --------------------------------------------------------------------------------
 GradGradGradGradGradGradGradGradGradGradGradGradGradGradGradGradGradGrad

                          Input orientation:                          
 ---------------------------------------------------------------------
 Center     Atomic      Atomic             Coordinates (Angstroms)
 Number     Number       Type             X           Y           Z
 ---------------------------------------------------------------------
      1          6           0       -8.444270    3.249126    0.000000
      2          6           0       -7.240820    3.271525    0.000000
      3          1           0       -9.506321    3.229360    0.000000
      4          1           0       -6.178769    3.291292    0.000000
 ---------------------------------------------------------------------
                    Distance matrix (angstroms):
                    1          2          3          4
     1  C    0.000000
     2  C    1.203659   0.000000
     3  H    1.062235   2.265894   0.000000
     4  H    2.265894   1.062235   3.328128   0.000000
 Stoichiometry    C2H2
 Framework group  D*H[C*(HC.CH)]
 Deg. of freedom     2
 Full point group                 D*H     NOp   8
 Largest Abelian subgroup         D2H     NOp   8
 Largest concise Abelian subgroup C2      NOp   2
                         Standard orientation:                         
 ---------------------------------------------------------------------
 Center     Atomic      Atomic             Coordinates (Angstroms)
 Number     Number       Type             X           Y           Z
 ---------------------------------------------------------------------
      1          6           0        0.000000    0.000000   -0.601829
      2          6           0        0.000000    0.000000    0.601829
      3          1           0        0.000000    0.000000   -1.664064
      4          1           0        0.000000    0.000000    1.664064
 ---------------------------------------------------------------------
 Rotational constants (GHZ):      0.0000000     35.4047556     35.4047556

 **********************************************************************

            Population analysis using the SCF density.

 **********************************************************************

 Orbital symmetries:
       Occupied  (SGG) (SGU) (SGG) (SGU) (SGG) (PIU) (PIU)
       Virtual   (PIG) (PIG) (SGU) (SGG) (SGU) (PIU) (PIU) (SGG)
                 (PIG) (PIG) (SGU) (SGG) (SGG) (SGU) (SGU)
 The electronic state is 1-SGG.
 Alpha  occ. eigenvalues --  -10.12920 -10.12875  -0.75330  -0.56549  -0.49953
 Alpha  occ. eigenvalues --   -0.29021  -0.29021
 Alpha virt. eigenvalues --    0.05615   0.05615   0.12225   0.17065   0.48515
 Alpha virt. eigenvalues --    0.71261   0.71261   0.71424   0.81676   0.81676
 Alpha virt. eigenvalues --    1.02541   1.08316   1.25368   1.30431   2.00702
          Condensed to atoms (all electrons):
               1          2          3          4
     1  C    4.926667   0.974453   0.371762  -0.024931
     2  C    0.974453   4.926667  -0.024931   0.371762
     3  H    0.371762  -0.024931   0.404552   0.000666
     4  H   -0.024931   0.371762   0.000666   0.404552
 Mulliken charges:
               1
     1  C   -0.247951
     2  C   -0.247951
     3  H    0.247951
     4  H    0.247951
 Sum of Mulliken charges =   0.00000
 Mulliken charges with hydrogens summed into heavy atoms:
               1
     1  C    0.000000
     2  C    0.000000
 Electronic spatial extent (au):  <R**2>=             60.1532
 Charge=              0.0000 electrons
 Dipole moment (field-independent basis, Debye):
    X=              0.0000    Y=              0.0000    Z=              0.0000  Tot=              0.0000
 Quadrupole moment (field-independent basis, Debye-Ang):
   XX=            -13.2461   YY=            -13.2461   ZZ=             -6.9383
   XY=              0.0000   XZ=              0.0000   YZ=              0.0000
 Traceless Quadrupole moment (field-independent basis, Debye-Ang):
   XX=             -2.1026   YY=             -2.1026   ZZ=              4.2052
   XY=              0.0000   XZ=              0.0000   YZ=              0.0000
 Octapole moment (field-independent basis, Debye-Ang**2):
  XXX=              0.0000  YYY=              0.0000  ZZZ=              0.0000  XYY=              0.0000
  XXY=              0.0000  XXZ=              0.0000  XZZ=              0.0000  YZZ=              0.0000
  YYZ=              0.0000  XYZ=              0.0000
 Hexadecapole moment (field-independent basis, Debye-Ang**3):
 XXXX=            -13.5152 YYYY=            -13.5152 ZZZZ=            -36.1842 XXXY=              0.0000
 XXXZ=              0.0000 YYYX=              0.0000 YYYZ=              0.0000 ZZZX=              0.0000
 ZZZY=              0.0000 XXYY=             -4.5051 XXZZ=            -11.6099 YYZZ=            -11.6099
 XXYZ=              0.0000 YYXZ=              0.0000 ZZXY=              0.0000
 N-N= 2.476662317046D+01 E-N=-2.274828832849D+02  KE= 7.612341909559D+01
 Symmetry AG   KE= 3.762798546996D+01
 Symmetry B1G  KE= 0.000000000000D+00
 Symmetry B2G  KE= 2.519187835386D-33
 Symmetry B3G  KE= 4.419973900554D-32
 Symmetry AU   KE= 0.000000000000D+00
 Symmetry B1U  KE= 3.405954503177D+01
 Symmetry B2U  KE= 2.217944296930D+00
 Symmetry B3U  KE= 2.217944296930D+00
 1\1\GINC-N0287\FOpt\RB3LYP\3-21G\C2H2\GDAVIDS3\21-Feb-2017\0\\#n B3LYP
 /3-21G Opt\\Ethyne B3LYP 3-21G\\0,1\C,-8.4442702642,3.2491264092,0.\C,
 -7.2408197358,3.2715250194,0.\H,-9.5063210752,3.2293595291,0.\H,-6.178
 7689248,3.2912918994,0.\\Version=ES64L-G09RevE.01\State=1-SGG\HF=-76.9
 071836\RMSD=9.126e-09\RMSF=6.163e-06\Dipole=0.,0.,0.\Quadrupole=3.1248
 209,-1.5615985,-1.5632224,0.0872538,0.,0.\PG=D*H [C*(H1C1.C1H1)]\\@


 WOE UNTO THEM THAT CALL EVIL GOOD, AND GOOD EVIL      
 Job cpu time:       0 days  0 hours  0 minutes 19.7 seconds.
 File lengths (MBytes):  RWF=      5 Int=      0 D2E=      0 Chk=      1 Scr=      1
 Normal termination of Gaussian 09 at Tue Feb 21 19:02:48 2017.
