 Entering Gaussian System, Link 0=g09
 Input=Ethene_M062X_STO-3G.com
 Output=Ethene_M062X_STO-3G.log
 Initial command:
 /sw/contrib/gaussian/g09/E01/g09/l1.exe "/scr/Gau-6934.inp" -scrdir="/scr/"
 Entering Link 1 = /sw/contrib/gaussian/g09/E01/g09/l1.exe PID=      6935.
  
 Copyright (c) 1988,1990,1992,1993,1995,1998,2003,2009,2015,
            Gaussian, Inc.  All Rights Reserved.
  
 This is part of the Gaussian(R) 09 program.  It is based on
 the Gaussian(R) 03 system (copyright 2003, Gaussian, Inc.),
 the Gaussian(R) 98 system (copyright 1998, Gaussian, Inc.),
 the Gaussian(R) 94 system (copyright 1995, Gaussian, Inc.),
 the Gaussian 92(TM) system (copyright 1992, Gaussian, Inc.),
 the Gaussian 90(TM) system (copyright 1990, Gaussian, Inc.),
 the Gaussian 88(TM) system (copyright 1988, Gaussian, Inc.),
 the Gaussian 86(TM) system (copyright 1986, Carnegie Mellon
 University), and the Gaussian 82(TM) system (copyright 1983,
 Carnegie Mellon University). Gaussian is a federally registered
 trademark of Gaussian, Inc.
  
 This software contains proprietary and confidential information,
 including trade secrets, belonging to Gaussian, Inc.
  
 This software is provided under written license and may be
 used, copied, transmitted, or stored only in accord with that
 written license.
  
 The following legend is applicable only to US Government
 contracts under FAR:
  
                    RESTRICTED RIGHTS LEGEND
  
 Use, reproduction and disclosure by the US Government is
 subject to restrictions as set forth in subparagraphs (a)
 and (c) of the Commercial Computer Software - Restricted
 Rights clause in FAR 52.227-19.
  
 Gaussian, Inc.
 340 Quinnipiac St., Bldg. 40, Wallingford CT 06492
  
  
 ---------------------------------------------------------------
 Warning -- This program may not be used in any manner that
 competes with the business of Gaussian, Inc. or will provide
 assistance to any competitor of Gaussian, Inc.  The licensee
 of this program is prohibited from giving any competitor of
 Gaussian, Inc. access to this program.  By using this program,
 the user acknowledges that Gaussian, Inc. is engaged in the
 business of creating and licensing software in the field of
 computational chemistry and represents and warrants to the
 licensee that it is not a competitor of Gaussian, Inc. and that
 it will not use this program in any manner prohibited above.
 ---------------------------------------------------------------
  

 Cite this work as:
 Gaussian 09, Revision E.01,
 M. J. Frisch, G. W. Trucks, H. B. Schlegel, G. E. Scuseria, 
 M. A. Robb, J. R. Cheeseman, G. Scalmani, V. Barone, B. Mennucci, 
 G. A. Petersson, H. Nakatsuji, M. Caricato, X. Li, H. P. Hratchian, 
 A. F. Izmaylov, J. Bloino, G. Zheng, J. L. Sonnenberg, M. Hada, 
 M. Ehara, K. Toyota, R. Fukuda, J. Hasegawa, M. Ishida, T. Nakajima, 
 Y. Honda, O. Kitao, H. Nakai, T. Vreven, J. A. Montgomery, Jr., 
 J. E. Peralta, F. Ogliaro, M. Bearpark, J. J. Heyd, E. Brothers, 
 K. N. Kudin, V. N. Staroverov, T. Keith, R. Kobayashi, J. Normand, 
 K. Raghavachari, A. Rendell, J. C. Burant, S. S. Iyengar, J. Tomasi, 
 M. Cossi, N. Rega, J. M. Millam, M. Klene, J. E. Knox, J. B. Cross, 
 V. Bakken, C. Adamo, J. Jaramillo, R. Gomperts, R. E. Stratmann, 
 O. Yazyev, A. J. Austin, R. Cammi, C. Pomelli, J. W. Ochterski, 
 R. L. Martin, K. Morokuma, V. G. Zakrzewski, G. A. Voth, 
 P. Salvador, J. J. Dannenberg, S. Dapprich, A. D. Daniels, 
 O. Farkas, J. B. Foresman, J. V. Ortiz, J. Cioslowski, 
 and D. J. Fox, Gaussian, Inc., Wallingford CT, 2013.
 
 ******************************************
 Gaussian 09:  ES64L-G09RevE.01 30-Nov-2015
                21-Feb-2017 
 ******************************************
 %NProcShared=8
 Will use up to    8 processors via shared memory.
 -------------------
 #n M062X/STO-3G Opt
 -------------------
 1/14=-1,18=20,19=15,26=3,38=1/1,3;
 2/9=110,12=2,17=6,18=5,40=1/2;
 3/6=3,11=2,16=1,25=1,30=1,71=1,74=-55/1,2,3;
 4//1;
 5/5=2,38=5/2;
 6/7=2,8=2,9=2,10=2,28=1/1;
 7//1,2,3,16;
 1/14=-1,18=20,19=15,26=3/3(2);
 2/9=110/2;
 99//99;
 2/9=110/2;
 3/6=3,11=2,16=1,25=1,30=1,71=1,74=-55/1,2,3;
 4/5=5,16=3,69=1/1;
 5/5=2,38=5/2;
 7//1,2,3,16;
 1/14=-1,18=20,19=15,26=3/3(-5);
 2/9=110/2;
 6/7=2,8=2,9=2,10=2,19=2,28=1/1;
 99/9=1/99;
 -------------------
 Ethene M062X STO-3G
 -------------------
 Symbolic Z-matrix:
 Charge =  0 Multiplicity = 1
 C                    -7.65068   3.04127   0. 
 C                    -6.33127   2.92512   0. 
 H                    -8.2108    3.09095  -0.93056 
 H                    -8.21086   3.09021   0.93056 
 H                    -5.77109   2.87619  -0.93056 
 H                    -5.77115   2.87544   0.93056 
 

 GradGradGradGradGradGradGradGradGradGradGradGradGradGradGradGradGradGrad
 Berny optimization.
 Initialization pass.
                           ----------------------------
                           !    Initial Parameters    !
                           ! (Angstroms and Degrees)  !
 --------------------------                            --------------------------
 ! Name  Definition              Value          Derivative Info.                !
 --------------------------------------------------------------------------------
 ! R1    R(1,2)                  1.3245         estimate D2E/DX2                !
 ! R2    R(1,3)                  1.0873         estimate D2E/DX2                !
 ! R3    R(1,4)                  1.0873         estimate D2E/DX2                !
 ! R4    R(2,5)                  1.0873         estimate D2E/DX2                !
 ! R5    R(2,6)                  1.0873         estimate D2E/DX2                !
 ! A1    A(2,1,3)              121.1437         estimate D2E/DX2                !
 ! A2    A(2,1,4)              121.1435         estimate D2E/DX2                !
 ! A3    A(3,1,4)              117.7128         estimate D2E/DX2                !
 ! A4    A(1,2,5)              121.1435         estimate D2E/DX2                !
 ! A5    A(1,2,6)              121.1437         estimate D2E/DX2                !
 ! A6    A(5,2,6)              117.7128         estimate D2E/DX2                !
 ! D1    D(3,1,2,5)              0.0007         estimate D2E/DX2                !
 ! D2    D(3,1,2,6)            180.0            estimate D2E/DX2                !
 ! D3    D(4,1,2,5)           -179.9994         estimate D2E/DX2                !
 ! D4    D(4,1,2,6)             -0.0001         estimate D2E/DX2                !
 --------------------------------------------------------------------------------
 Trust Radius=3.00D-01 FncErr=1.00D-07 GrdErr=1.00D-06
 Number of steps in this run=     25 maximum allowed number of steps=    100.
 GradGradGradGradGradGradGradGradGradGradGradGradGradGradGradGradGradGrad

                          Input orientation:                          
 ---------------------------------------------------------------------
 Center     Atomic      Atomic             Coordinates (Angstroms)
 Number     Number       Type             X           Y           Z
 ---------------------------------------------------------------------
      1          6           0       -7.650680    3.041270    0.000000
      2          6           0       -6.331270    2.925120    0.000000
      3          1           0       -8.210800    3.090950   -0.930560
      4          1           0       -8.210860    3.090210    0.930560
      5          1           0       -5.771090    2.876190   -0.930560
      6          1           0       -5.771150    2.875440    0.930560
 ---------------------------------------------------------------------
                    Distance matrix (angstroms):
                    1          2          3          4          5
     1  C    0.000000
     2  C    1.324513   0.000000
     3  H    1.087265   2.103824   0.000000
     4  H    1.087262   2.103819   1.861120   0.000000
     5  H    2.103818   1.087262   2.449144   3.076045   0.000000
     6  H    2.103824   1.087265   3.076053   2.449145   1.861120
                    6
     6  H    0.000000
 Stoichiometry    C2H4
 Framework group  C1[X(C2H4)]
 Deg. of freedom    12
 Full point group                 C1      NOp   1
 Largest Abelian subgroup         C1      NOp   1
 Largest concise Abelian subgroup C1      NOp   1
                         Standard orientation:                         
 ---------------------------------------------------------------------
 Center     Atomic      Atomic             Coordinates (Angstroms)
 Number     Number       Type             X           Y           Z
 ---------------------------------------------------------------------
      1          6           0       -0.662256   -0.000001    0.000000
      2          6           0        0.662256    0.000001   -0.000002
      3          1           0       -1.224576    0.930558   -0.000002
      4          1           0       -1.224569   -0.930562    0.000003
      5          1           0        1.224568    0.930562    0.000006
      6          1           0        1.224576   -0.930558    0.000001
 ---------------------------------------------------------------------
 Rotational constants (GHZ):    144.7715521     30.4973425     25.1907084
 Standard basis: STO-3G (5D, 7F)
 There are    14 symmetry adapted cartesian basis functions of A   symmetry.
 There are    14 symmetry adapted basis functions of A   symmetry.
    14 basis functions,    42 primitive gaussians,    14 cartesian basis functions
     8 alpha electrons        8 beta electrons
       nuclear repulsion energy        33.4454879269 Hartrees.
 NAtoms=    6 NActive=    6 NUniq=    6 SFac= 1.00D+00 NAtFMM=   60 NAOKFM=F Big=F
 Integral buffers will be    131072 words long.
 Raffenetti 2 integral format.
 Two-electron integral symmetry is turned on.
 One-electron integrals computed using PRISM.
 NBasis=    14 RedAO= T EigKep=  1.86D-01  NBF=    14
 NBsUse=    14 1.00D-06 EigRej= -1.00D+00 NBFU=    14
 ExpMin= 1.69D-01 ExpMax= 7.16D+01 ExpMxC= 7.16D+01 IAcc=1 IRadAn=         1 AccDes= 0.00D+00
 Harris functional with IExCor= 1009 and IRadAn=       1 diagonalized for initial guess.
 HarFok:  IExCor= 1009 AccDes= 0.00D+00 IRadAn=         1 IDoV= 1 UseB2=F ITyADJ=14
 ICtDFT=  3500011 ScaDFX=  1.000000  1.000000  1.000000  1.000000
 FoFCou: FMM=F IPFlag=           0 FMFlag=      100000 FMFlg1=           0
         NFxFlg=           0 DoJE=T BraDBF=F KetDBF=T FulRan=T
         wScrn=  0.000000 ICntrl=     500 IOpCl=  0 I1Cent=   200000004 NGrid=           0
         NMat0=    1 NMatS0=      1 NMatT0=    0 NMatD0=    1 NMtDS0=    0 NMtDT0=    0
 Petite list used in FoFCou.
 Keep R1 ints in memory in canonical form, NReq=885538.
 Requested convergence on RMS density matrix=1.00D-08 within 128 cycles.
 Requested convergence on MAX density matrix=1.00D-06.
 Requested convergence on             energy=1.00D-06.
 No special actions if energy rises.
 Integral accuracy reduced to 1.0D-05 until final iterations.
 Initial convergence to 1.0D-05 achieved.  Increase integral accuracy.
 SCF Done:  E(RM062X) =  -77.6084802914     A.U. after   11 cycles
            NFock= 11  Conv=0.20D-08     -V/T= 2.0138

 **********************************************************************

            Population analysis using the SCF density.

 **********************************************************************

 Orbital symmetries:
       Occupied  (A) (A) (A) (A) (A) (A) (A) (A)
       Virtual   (A) (A) (A) (A) (A) (A)
 The electronic state is 1-A.
 Alpha  occ. eigenvalues --  -10.36063 -10.36050  -0.80975  -0.61691  -0.50554
 Alpha  occ. eigenvalues --   -0.43577  -0.37884  -0.27378
 Alpha virt. eigenvalues --    0.17907   0.46116   0.51384   0.52157   0.73613
 Alpha virt. eigenvalues --    0.75901
          Condensed to atoms (all electrons):
               1          2          3          4          5          6
     1  C    4.816924   0.603211   0.391269   0.391270  -0.025723  -0.025722
     2  C    0.603211   4.816924  -0.025722  -0.025723   0.391270   0.391269
     3  H    0.391269  -0.025722   0.584647  -0.022739  -0.005181   0.002111
     4  H    0.391270  -0.025723  -0.022739   0.584647   0.002111  -0.005181
     5  H   -0.025723   0.391270  -0.005181   0.002111   0.584647  -0.022739
     6  H   -0.025722   0.391269   0.002111  -0.005181  -0.022739   0.584647
 Mulliken charges:
               1
     1  C   -0.151229
     2  C   -0.151229
     3  H    0.075614
     4  H    0.075615
     5  H    0.075615
     6  H    0.075614
 Sum of Mulliken charges =   0.00000
 Mulliken charges with hydrogens summed into heavy atoms:
               1
     1  C    0.000000
     2  C    0.000000
 Electronic spatial extent (au):  <R**2>=             79.9859
 Charge=              0.0000 electrons
 Dipole moment (field-independent basis, Debye):
    X=              0.0000    Y=              0.0000    Z=              0.0000  Tot=              0.0000
 Quadrupole moment (field-independent basis, Debye-Ang):
   XX=            -11.7974   YY=            -11.5831   ZZ=            -13.4757
   XY=              0.0000   XZ=              0.0000   YZ=              0.0000
 Traceless Quadrupole moment (field-independent basis, Debye-Ang):
   XX=              0.4880   YY=              0.7023   ZZ=             -1.1903
   XY=              0.0000   XZ=              0.0000   YZ=              0.0000
 Octapole moment (field-independent basis, Debye-Ang**2):
  XXX=              0.0000  YYY=              0.0000  ZZZ=              0.0000  XYY=              0.0000
  XXY=              0.0000  XXZ=              0.0000  XZZ=              0.0000  YZZ=              0.0000
  YYZ=              0.0000  XYZ=              0.0000
 Hexadecapole moment (field-independent basis, Debye-Ang**3):
 XXXX=            -62.5279 YYYY=            -23.6840 ZZZZ=            -10.8837 XXXY=             -0.0001
 XXXZ=              0.0000 YYYX=              0.0000 YYYZ=              0.0000 ZZZX=              0.0000
 ZZZY=              0.0000 XXYY=            -11.9368 XXZZ=            -12.7526 YYZZ=             -6.3239
 XXYZ=              0.0000 YYXZ=              0.0000 ZZXY=              0.0000
 N-N= 3.344548792691D+01 E-N=-2.463179858302D+02  KE= 7.655263197016D+01
 Calling FoFJK, ICntrl=      2127 FMM=F ISym2X=0 I1Cent= 0 IOpClX= 0 NMat=1 NMatS=1 NMatT=0.
 ***** Axes restored to original set *****
 -------------------------------------------------------------------
 Center     Atomic                   Forces (Hartrees/Bohr)
 Number     Number              X              Y              Z
 -------------------------------------------------------------------
      1        6           0.009749726   -0.000858616   -0.000001144
      2        6          -0.009749959    0.000859294    0.000001462
      3        1          -0.004498623    0.000397025   -0.001879833
      4        1          -0.004500359    0.000395173    0.001881671
      5        1           0.004500553   -0.000396008   -0.001881957
      6        1           0.004498661   -0.000396869    0.001879801
 -------------------------------------------------------------------
 Cartesian Forces:  Max     0.009749959 RMS     0.003995527

 GradGradGradGradGradGradGradGradGradGradGradGradGradGradGradGradGradGrad
 Berny optimization.
 FormGI is forming the generalized inverse of G from B-inverse, IUseBI=4.
 Internal  Forces:  Max     0.003963041 RMS     0.002707557
 Search for a local minimum.
 Step number   1 out of a maximum of   25
 All quantities printed in internal units (Hartrees-Bohrs-Radians)
 Mixed Optimization -- RFO/linear search
 Second derivative matrix not updated -- first step.
 The second derivative matrix:
                          R1        R2        R3        R4        R5
           R1           0.60821
           R2           0.00000   0.35131
           R3           0.00000   0.00000   0.35131
           R4           0.00000   0.00000   0.00000   0.35131
           R5           0.00000   0.00000   0.00000   0.00000   0.35131
           A1           0.00000   0.00000   0.00000   0.00000   0.00000
           A2           0.00000   0.00000   0.00000   0.00000   0.00000
           A3           0.00000   0.00000   0.00000   0.00000   0.00000
           A4           0.00000   0.00000   0.00000   0.00000   0.00000
           A5           0.00000   0.00000   0.00000   0.00000   0.00000
           A6           0.00000   0.00000   0.00000   0.00000   0.00000
           D1           0.00000   0.00000   0.00000   0.00000   0.00000
           D2           0.00000   0.00000   0.00000   0.00000   0.00000
           D3           0.00000   0.00000   0.00000   0.00000   0.00000
           D4           0.00000   0.00000   0.00000   0.00000   0.00000
                          A1        A2        A3        A4        A5
           A1           0.16000
           A2           0.00000   0.16000
           A3           0.00000   0.00000   0.16000
           A4           0.00000   0.00000   0.00000   0.16000
           A5           0.00000   0.00000   0.00000   0.00000   0.16000
           A6           0.00000   0.00000   0.00000   0.00000   0.00000
           D1           0.00000   0.00000   0.00000   0.00000   0.00000
           D2           0.00000   0.00000   0.00000   0.00000   0.00000
           D3           0.00000   0.00000   0.00000   0.00000   0.00000
           D4           0.00000   0.00000   0.00000   0.00000   0.00000
                          A6        D1        D2        D3        D4
           A6           0.16000
           D1           0.00000   0.03087
           D2           0.00000   0.00000   0.03087
           D3           0.00000   0.00000   0.00000   0.03087
           D4           0.00000   0.00000   0.00000   0.00000   0.03087
 ITU=  0
     Eigenvalues ---    0.03087   0.03087   0.03087   0.16000   0.16000
     Eigenvalues ---    0.16000   0.16000   0.35131   0.35131   0.35131
     Eigenvalues ---    0.35131   0.60821
 RFO step:  Lambda=-4.71580150D-04 EMin= 3.08730960D-02
 Linear search not attempted -- first point.
 Iteration  1 RMS(Cart)=  0.01400939 RMS(Int)=  0.00010067
 Iteration  2 RMS(Cart)=  0.00010808 RMS(Int)=  0.00000001
 Iteration  3 RMS(Cart)=  0.00000001 RMS(Int)=  0.00000000
 Variable       Old X    -DE/DX   Delta X   Delta X   Delta X     New X
                                 (Linear)    (Quad)   (Total)
    R1        2.50297  -0.00075   0.00000  -0.00124  -0.00124   2.50173
    R2        2.05463   0.00394   0.00000   0.01121   0.01121   2.06585
    R3        2.05463   0.00395   0.00000   0.01122   0.01122   2.06585
    R4        2.05463   0.00395   0.00000   0.01122   0.01122   2.06585
    R5        2.05463   0.00394   0.00000   0.01121   0.01121   2.06585
    A1        2.11436   0.00198   0.00000   0.01235   0.01235   2.12670
    A2        2.11435   0.00198   0.00000   0.01235   0.01235   2.12670
    A3        2.05448  -0.00396   0.00000  -0.02470  -0.02470   2.02978
    A4        2.11435   0.00198   0.00000   0.01235   0.01235   2.12670
    A5        2.11436   0.00198   0.00000   0.01235   0.01235   2.12670
    A6        2.05448  -0.00396   0.00000  -0.02470  -0.02470   2.02978
    D1        0.00001   0.00000   0.00000  -0.00002  -0.00002   0.00000
    D2        3.14159   0.00000   0.00000   0.00000   0.00000  -3.14159
    D3       -3.14158   0.00000   0.00000  -0.00002  -0.00002   3.14159
    D4        0.00000   0.00000   0.00000   0.00000   0.00000   0.00000
         Item               Value     Threshold  Converged?
 Maximum Force            0.003963     0.000450     NO 
 RMS     Force            0.002708     0.000300     NO 
 Maximum Displacement     0.026833     0.001800     NO 
 RMS     Displacement     0.014042     0.001200     NO 
 Predicted change in Energy=-2.363418D-04
 GradGradGradGradGradGradGradGradGradGradGradGradGradGradGradGradGradGrad

                          Input orientation:                          
 ---------------------------------------------------------------------
 Center     Atomic      Atomic             Coordinates (Angstroms)
 Number     Number       Type             X           Y           Z
 ---------------------------------------------------------------------
      1          6           0       -7.650354    3.041242    0.000001
      2          6           0       -6.331596    2.925154   -0.000001
      3          1           0       -8.224995    3.092201   -0.928586
      4          1           0       -8.225060    3.091457    0.928589
      5          1           0       -5.756891    2.874934   -0.928589
      6          1           0       -5.756955    2.874192    0.928586
 ---------------------------------------------------------------------
                    Distance matrix (angstroms):
                    1          2          3          4          5
     1  C    0.000000
     2  C    1.323857   0.000000
     3  H    1.093198   2.115451   0.000000
     4  H    1.093199   2.115453   1.857175   0.000000
     5  H    2.115453   1.093199   2.477649   3.096426   0.000000
     6  H    2.115451   1.093198   3.096423   2.477649   1.857176
                    6
     6  H    0.000000
 Stoichiometry    C2H4
 Framework group  C1[X(C2H4)]
 Deg. of freedom    12
 Full point group                 C1      NOp   1
 Largest Abelian subgroup         C1      NOp   1
 Largest concise Abelian subgroup C1      NOp   1
                         Standard orientation:                         
 ---------------------------------------------------------------------
 Center     Atomic      Atomic             Coordinates (Angstroms)
 Number     Number       Type             X           Y           Z
 ---------------------------------------------------------------------
      1          6           0       -0.661929    0.000000    0.000000
      2          6           0        0.661929    0.000000    0.000001
      3          1           0       -1.238823    0.928588    0.000000
      4          1           0       -1.238825   -0.928587   -0.000002
      5          1           0        1.238825    0.928587   -0.000003
      6          1           0        1.238823   -0.928588   -0.000002
 ---------------------------------------------------------------------
 Rotational constants (GHZ):    145.3871996     30.2579243     25.0454711
 Standard basis: STO-3G (5D, 7F)
 There are    14 symmetry adapted cartesian basis functions of A   symmetry.
 There are    14 symmetry adapted basis functions of A   symmetry.
    14 basis functions,    42 primitive gaussians,    14 cartesian basis functions
     8 alpha electrons        8 beta electrons
       nuclear repulsion energy        33.3499657302 Hartrees.
 NAtoms=    6 NActive=    6 NUniq=    6 SFac= 1.00D+00 NAtFMM=   60 NAOKFM=F Big=F
 Integral buffers will be    131072 words long.
 Raffenetti 2 integral format.
 Two-electron integral symmetry is turned on.
 One-electron integrals computed using PRISM.
 NBasis=    14 RedAO= T EigKep=  1.87D-01  NBF=    14
 NBsUse=    14 1.00D-06 EigRej= -1.00D+00 NBFU=    14
 Initial guess from the checkpoint file:  "/scr/Gau-6935.chk"
 B after Tr=     0.000000    0.000000    0.000000
         Rot=    1.000000    0.000000    0.000000    0.000001 Ang=   0.00 deg.
 ExpMin= 1.69D-01 ExpMax= 7.16D+01 ExpMxC= 7.16D+01 IAcc=1 IRadAn=         1 AccDes= 0.00D+00
 Harris functional with IExCor= 1009 and IRadAn=       1 diagonalized for initial guess.
 HarFok:  IExCor= 1009 AccDes= 0.00D+00 IRadAn=         1 IDoV= 1 UseB2=F ITyADJ=14
 ICtDFT=  3500011 ScaDFX=  1.000000  1.000000  1.000000  1.000000
 FoFCou: FMM=F IPFlag=           0 FMFlag=      100000 FMFlg1=           0
         NFxFlg=           0 DoJE=T BraDBF=F KetDBF=T FulRan=T
         wScrn=  0.000000 ICntrl=     500 IOpCl=  0 I1Cent=   200000004 NGrid=           0
         NMat0=    1 NMatS0=      1 NMatT0=    0 NMatD0=    1 NMtDS0=    0 NMtDT0=    0
 Petite list used in FoFCou.
 Keep R1 ints in memory in canonical form, NReq=885538.
 Requested convergence on RMS density matrix=1.00D-08 within 128 cycles.
 Requested convergence on MAX density matrix=1.00D-06.
 Requested convergence on             energy=1.00D-06.
 No special actions if energy rises.
 Integral accuracy reduced to 1.0D-05 until final iterations.
 Initial convergence to 1.0D-05 achieved.  Increase integral accuracy.
 SCF Done:  E(RM062X) =  -77.6087301200     A.U. after    9 cycles
            NFock=  9  Conv=0.97D-08     -V/T= 2.0141
 Calling FoFJK, ICntrl=      2127 FMM=F ISym2X=0 I1Cent= 0 IOpClX= 0 NMat=1 NMatS=1 NMatT=0.
 ***** Axes restored to original set *****
 -------------------------------------------------------------------
 Center     Atomic                   Forces (Hartrees/Bohr)
 Number     Number              X              Y              Z
 -------------------------------------------------------------------
      1        6           0.001688980   -0.000148718    0.000000408
      2        6          -0.001689008    0.000148105   -0.000000508
      3        1          -0.000107452    0.000009074    0.000969259
      4        1          -0.000106891    0.000009959   -0.000969837
      5        1           0.000106892   -0.000009499    0.000969938
      6        1           0.000107481   -0.000008921   -0.000969261
 -------------------------------------------------------------------
 Cartesian Forces:  Max     0.001689008 RMS     0.000728623

 GradGradGradGradGradGradGradGradGradGradGradGradGradGradGradGradGradGrad
 Berny optimization.
 Using GEDIIS/GDIIS optimizer.
 FormGI is forming the generalized inverse of G from B-inverse, IUseBI=4.
 Internal  Forces:  Max     0.001480328 RMS     0.000663961
 Search for a local minimum.
 Step number   2 out of a maximum of   25
 All quantities printed in internal units (Hartrees-Bohrs-Radians)
 Mixed Optimization -- En-DIIS/RFO-DIIS
 Update second derivatives using D2CorX and points    1    2
 DE= -2.50D-04 DEPred=-2.36D-04 R= 1.06D+00
 TightC=F SS=  1.41D+00  RLast= 4.83D-02 DXNew= 5.0454D-01 1.4495D-01
 Trust test= 1.06D+00 RLast= 4.83D-02 DXMaxT set to 3.00D-01
 The second derivative matrix:
                          R1        R2        R3        R4        R5
           R1           0.60819
           R2           0.01404   0.36846
           R3           0.01405   0.01717   0.36849
           R4           0.01405   0.01717   0.01719   0.36850
           R5           0.01404   0.01716   0.01717   0.01717   0.36846
           A1           0.00573   0.00013   0.00013   0.00013   0.00013
           A2           0.00574   0.00013   0.00013   0.00013   0.00013
           A3          -0.01147  -0.00026  -0.00026  -0.00026  -0.00026
           A4           0.00574   0.00013   0.00013   0.00013   0.00013
           A5           0.00573   0.00013   0.00013   0.00013   0.00013
           A6          -0.01147  -0.00026  -0.00026  -0.00026  -0.00026
           D1           0.00000   0.00000   0.00000   0.00000   0.00000
           D2           0.00000   0.00000   0.00000   0.00000   0.00000
           D3           0.00000   0.00000   0.00000   0.00000   0.00000
           D4           0.00000   0.00000   0.00000   0.00000   0.00000
                          A1        A2        A3        A4        A5
           A1           0.15725
           A2          -0.00275   0.15725
           A3           0.00551   0.00551   0.14898
           A4          -0.00275  -0.00275   0.00551   0.15725
           A5          -0.00275  -0.00275   0.00551  -0.00275   0.15725
           A6           0.00551   0.00551  -0.01102   0.00551   0.00551
           D1           0.00000   0.00000   0.00000   0.00000   0.00000
           D2           0.00000   0.00000   0.00000   0.00000   0.00000
           D3           0.00000   0.00000   0.00000   0.00000   0.00000
           D4           0.00000   0.00000   0.00000   0.00000   0.00000
                          A6        D1        D2        D3        D4
           A6           0.14898
           D1           0.00000   0.03087
           D2           0.00000   0.00000   0.03087
           D3           0.00000   0.00000   0.00000   0.03087
           D4           0.00000   0.00000   0.00000   0.00000   0.03087
 ITU=  1  0
 Use linear search instead of GDIIS.
     Eigenvalues ---    0.03087   0.03087   0.03087   0.12613   0.16000
     Eigenvalues ---    0.16000   0.16000   0.35131   0.35131   0.35131
     Eigenvalues ---    0.41591   0.61310
 RFO step:  Lambda=-2.43815493D-05 EMin= 3.08730960D-02
 Quartic linear search produced a step of  0.06585.
 Iteration  1 RMS(Cart)=  0.00333647 RMS(Int)=  0.00000666
 Iteration  2 RMS(Cart)=  0.00000689 RMS(Int)=  0.00000000
 Iteration  3 RMS(Cart)=  0.00000000 RMS(Int)=  0.00000000
 Variable       Old X    -DE/DX   Delta X   Delta X   Delta X     New X
                                 (Linear)    (Quad)   (Total)
    R1        2.50173  -0.00148  -0.00008  -0.00258  -0.00266   2.49907
    R2        2.06585  -0.00077   0.00074  -0.00248  -0.00175   2.06410
    R3        2.06585  -0.00077   0.00074  -0.00249  -0.00175   2.06410
    R4        2.06585  -0.00077   0.00074  -0.00249  -0.00175   2.06410
    R5        2.06585  -0.00077   0.00074  -0.00248  -0.00175   2.06410
    A1        2.12670   0.00042   0.00081   0.00259   0.00341   2.13011
    A2        2.12670   0.00042   0.00081   0.00259   0.00340   2.13011
    A3        2.02978  -0.00083  -0.00163  -0.00518  -0.00681   2.02297
    A4        2.12670   0.00042   0.00081   0.00259   0.00341   2.13011
    A5        2.12670   0.00042   0.00081   0.00259   0.00341   2.13011
    A6        2.02978  -0.00083  -0.00163  -0.00518  -0.00681   2.02297
    D1        0.00000   0.00000   0.00000   0.00001   0.00001   0.00000
    D2       -3.14159   0.00000   0.00000  -0.00001  -0.00001   3.14159
    D3        3.14159   0.00000   0.00000   0.00001   0.00001  -3.14159
    D4        0.00000   0.00000   0.00000   0.00000   0.00000   0.00000
         Item               Value     Threshold  Converged?
 Maximum Force            0.001480     0.000450     NO 
 RMS     Force            0.000664     0.000300     NO 
 Maximum Displacement     0.005205     0.001800     NO 
 RMS     Displacement     0.003337     0.001200     NO 
 Predicted change in Energy=-1.311617D-05
 GradGradGradGradGradGradGradGradGradGradGradGradGradGradGradGradGradGrad

                          Input orientation:                          
 ---------------------------------------------------------------------
 Center     Atomic      Atomic             Coordinates (Angstroms)
 Number     Number       Type             X           Y           Z
 ---------------------------------------------------------------------
      1          6           0       -7.649653    3.041179    0.000001
      2          6           0       -6.332297    2.925212   -0.000001
      3          1           0       -8.226953    3.092373   -0.925833
      4          1           0       -8.227016    3.091632    0.925835
      5          1           0       -5.754934    2.874763   -0.925835
      6          1           0       -5.754997    2.874022    0.925833
 ---------------------------------------------------------------------
                    Distance matrix (angstroms):
                    1          2          3          4          5
     1  C    0.000000
     2  C    1.322451   0.000000
     3  H    1.092274   2.115379   0.000000
     4  H    1.092274   2.115379   1.851668   0.000000
     5  H    2.115379   1.092274   2.481579   3.096273   0.000000
     6  H    2.115379   1.092274   3.096274   2.481579   1.851668
                    6
     6  H    0.000000
 Stoichiometry    C2H4
 Framework group  C1[X(C2H4)]
 Deg. of freedom    12
 Full point group                 C1      NOp   1
 Largest Abelian subgroup         C1      NOp   1
 Largest concise Abelian subgroup C1      NOp   1
                         Standard orientation:                         
 ---------------------------------------------------------------------
 Center     Atomic      Atomic             Coordinates (Angstroms)
 Number     Number       Type             X           Y           Z
 ---------------------------------------------------------------------
      1          6           0       -0.661225    0.000000    0.000000
      2          6           0        0.661225    0.000000   -0.000001
      3          1           0       -1.240790    0.925834    0.000001
      4          1           0       -1.240789   -0.925834    0.000001
      5          1           0        1.240789    0.925834    0.000002
      6          1           0        1.240790   -0.925834    0.000001
 ---------------------------------------------------------------------
 Rotational constants (GHZ):    146.2533129     30.2627958     25.0743922
 Standard basis: STO-3G (5D, 7F)
 There are    14 symmetry adapted cartesian basis functions of A   symmetry.
 There are    14 symmetry adapted basis functions of A   symmetry.
    14 basis functions,    42 primitive gaussians,    14 cartesian basis functions
     8 alpha electrons        8 beta electrons
       nuclear repulsion energy        33.3763451671 Hartrees.
 NAtoms=    6 NActive=    6 NUniq=    6 SFac= 1.00D+00 NAtFMM=   60 NAOKFM=F Big=F
 Integral buffers will be    131072 words long.
 Raffenetti 2 integral format.
 Two-electron integral symmetry is turned on.
 One-electron integrals computed using PRISM.
 NBasis=    14 RedAO= T EigKep=  1.87D-01  NBF=    14
 NBsUse=    14 1.00D-06 EigRej= -1.00D+00 NBFU=    14
 Initial guess from the checkpoint file:  "/scr/Gau-6935.chk"
 B after Tr=     0.000000    0.000000    0.000000
         Rot=    1.000000    0.000000    0.000000    0.000000 Ang=   0.00 deg.
 Keep R1 ints in memory in canonical form, NReq=885538.
 Requested convergence on RMS density matrix=1.00D-08 within 128 cycles.
 Requested convergence on MAX density matrix=1.00D-06.
 Requested convergence on             energy=1.00D-06.
 No special actions if energy rises.
 SCF Done:  E(RM062X) =  -77.6087423419     A.U. after    6 cycles
            NFock=  6  Conv=0.76D-08     -V/T= 2.0140
 Calling FoFJK, ICntrl=      2127 FMM=F ISym2X=0 I1Cent= 0 IOpClX= 0 NMat=1 NMatS=1 NMatT=0.
 ***** Axes restored to original set *****
 -------------------------------------------------------------------
 Center     Atomic                   Forces (Hartrees/Bohr)
 Number     Number              X              Y              Z
 -------------------------------------------------------------------
      1        6          -0.000165101    0.000014727   -0.000000078
      2        6           0.000165130   -0.000014199    0.000000089
      3        1          -0.000002479    0.000000146   -0.000069205
      4        1          -0.000002557    0.000000071    0.000069300
      5        1           0.000002543   -0.000000361   -0.000069318
      6        1           0.000002464   -0.000000383    0.000069213
 -------------------------------------------------------------------
 Cartesian Forces:  Max     0.000165130 RMS     0.000064186

 GradGradGradGradGradGradGradGradGradGradGradGradGradGradGradGradGradGrad
 Berny optimization.
 Using GEDIIS/GDIIS optimizer.
 FormGI is forming the generalized inverse of G from B-inverse, IUseBI=4.
 Internal  Forces:  Max     0.000170793 RMS     0.000057963
 Search for a local minimum.
 Step number   3 out of a maximum of   25
 All quantities printed in internal units (Hartrees-Bohrs-Radians)
 Mixed Optimization -- En-DIIS/RFO-DIIS
 Swapping is turned off.
 Update second derivatives using D2CorX and points    1    2    3
 DE= -1.22D-05 DEPred=-1.31D-05 R= 9.32D-01
 TightC=F SS=  1.41D+00  RLast= 1.26D-02 DXNew= 5.0454D-01 3.7762D-02
 Trust test= 9.32D-01 RLast= 1.26D-02 DXMaxT set to 3.00D-01
 The second derivative matrix:
                          R1        R2        R3        R4        R5
           R1           0.62118
           R2           0.01860   0.37000
           R3           0.01862   0.01871   0.37004
           R4           0.01862   0.01871   0.01873   0.37004
           R5           0.01861   0.01869   0.01871   0.01871   0.37000
           A1           0.00318  -0.00081  -0.00081  -0.00081  -0.00081
           A2           0.00318  -0.00080  -0.00080  -0.00080  -0.00080
           A3          -0.00636   0.00161   0.00161   0.00161   0.00161
           A4           0.00318  -0.00080  -0.00080  -0.00080  -0.00080
           A5           0.00318  -0.00081  -0.00081  -0.00081  -0.00081
           A6          -0.00636   0.00161   0.00161   0.00161   0.00161
           D1           0.00000   0.00000   0.00000   0.00000   0.00000
           D2           0.00001   0.00001   0.00001   0.00001   0.00001
           D3          -0.00002  -0.00001  -0.00001  -0.00001  -0.00001
           D4           0.00000   0.00000   0.00000   0.00000   0.00000
                          A1        A2        A3        A4        A5
           A1           0.15748
           A2          -0.00252   0.15748
           A3           0.00504   0.00504   0.14992
           A4          -0.00252  -0.00252   0.00504   0.15748
           A5          -0.00252  -0.00252   0.00504  -0.00252   0.15748
           A6           0.00504   0.00504  -0.01008   0.00504   0.00504
           D1           0.00000   0.00000   0.00000   0.00000   0.00000
           D2           0.00000   0.00000   0.00001   0.00000   0.00000
           D3           0.00000   0.00000  -0.00001   0.00000   0.00000
           D4           0.00000   0.00000   0.00000   0.00000   0.00000
                          A6        D1        D2        D3        D4
           A6           0.14992
           D1           0.00000   0.03087
           D2           0.00001   0.00000   0.03087
           D3          -0.00001   0.00000   0.00000   0.03087
           D4           0.00000   0.00000   0.00000   0.00000   0.03087
 ITU=  1  1  0
     Eigenvalues ---    0.03087   0.03087   0.03087   0.12938   0.16000
     Eigenvalues ---    0.16000   0.16000   0.35131   0.35131   0.35131
     Eigenvalues ---    0.41948   0.62824
 En-DIIS/RFO-DIIS IScMMF=        0 using points:     3    2
 RFO step:  Lambda=-7.65415577D-08.
 DidBck=F Rises=F RFO-DIIS coefs:    0.93430    0.06570
 Iteration  1 RMS(Cart)=  0.00017997 RMS(Int)=  0.00000002
 Iteration  2 RMS(Cart)=  0.00000002 RMS(Int)=  0.00000000
 Variable       Old X    -DE/DX   Delta X   Delta X   Delta X     New X
                                 (Linear)    (Quad)   (Total)
    R1        2.49907   0.00017   0.00017   0.00010   0.00027   2.49934
    R2        2.06410   0.00006   0.00011   0.00001   0.00012   2.06422
    R3        2.06410   0.00006   0.00011   0.00001   0.00012   2.06422
    R4        2.06410   0.00006   0.00011   0.00001   0.00012   2.06422
    R5        2.06410   0.00006   0.00011   0.00001   0.00012   2.06422
    A1        2.13011  -0.00002  -0.00022   0.00004  -0.00019   2.12992
    A2        2.13011  -0.00002  -0.00022   0.00004  -0.00019   2.12992
    A3        2.02297   0.00005   0.00045  -0.00007   0.00037   2.02334
    A4        2.13011  -0.00002  -0.00022   0.00004  -0.00019   2.12992
    A5        2.13011  -0.00002  -0.00022   0.00004  -0.00019   2.12992
    A6        2.02297   0.00005   0.00045  -0.00007   0.00037   2.02334
    D1        0.00000   0.00000   0.00000   0.00000   0.00000   0.00000
    D2        3.14159   0.00000   0.00000   0.00001   0.00001  -3.14159
    D3       -3.14159   0.00000   0.00000  -0.00001  -0.00001   3.14159
    D4        0.00000   0.00000   0.00000   0.00000   0.00000   0.00000
         Item               Value     Threshold  Converged?
 Maximum Force            0.000171     0.000450     YES
 RMS     Force            0.000058     0.000300     YES
 Maximum Displacement     0.000311     0.001800     YES
 RMS     Displacement     0.000180     0.001200     YES
 Predicted change in Energy=-6.490267D-08
 Optimization completed.
    -- Stationary point found.
                           ----------------------------
                           !   Optimized Parameters   !
                           ! (Angstroms and Degrees)  !
 --------------------------                            --------------------------
 ! Name  Definition              Value          Derivative Info.                !
 --------------------------------------------------------------------------------
 ! R1    R(1,2)                  1.3225         -DE/DX =    0.0002              !
 ! R2    R(1,3)                  1.0923         -DE/DX =    0.0001              !
 ! R3    R(1,4)                  1.0923         -DE/DX =    0.0001              !
 ! R4    R(2,5)                  1.0923         -DE/DX =    0.0001              !
 ! R5    R(2,6)                  1.0923         -DE/DX =    0.0001              !
 ! A1    A(2,1,3)              122.0462         -DE/DX =    0.0                 !
 ! A2    A(2,1,4)              122.0462         -DE/DX =    0.0                 !
 ! A3    A(3,1,4)              115.9076         -DE/DX =    0.0                 !
 ! A4    A(1,2,5)              122.0462         -DE/DX =    0.0                 !
 ! A5    A(1,2,6)              122.0462         -DE/DX =    0.0                 !
 ! A6    A(5,2,6)              115.9076         -DE/DX =    0.0                 !
 ! D1    D(3,1,2,5)              0.0001         -DE/DX =    0.0                 !
 ! D2    D(3,1,2,6)           -180.0002         -DE/DX =    0.0                 !
 ! D3    D(4,1,2,5)            180.0002         -DE/DX =    0.0                 !
 ! D4    D(4,1,2,6)              0.0            -DE/DX =    0.0                 !
 --------------------------------------------------------------------------------
 GradGradGradGradGradGradGradGradGradGradGradGradGradGradGradGradGradGrad

                          Input orientation:                          
 ---------------------------------------------------------------------
 Center     Atomic      Atomic             Coordinates (Angstroms)
 Number     Number       Type             X           Y           Z
 ---------------------------------------------------------------------
      1          6           0       -7.649653    3.041179    0.000001
      2          6           0       -6.332297    2.925212   -0.000001
      3          1           0       -8.226953    3.092373   -0.925833
      4          1           0       -8.227016    3.091632    0.925835
      5          1           0       -5.754934    2.874763   -0.925835
      6          1           0       -5.754997    2.874022    0.925833
 ---------------------------------------------------------------------
                    Distance matrix (angstroms):
                    1          2          3          4          5
     1  C    0.000000
     2  C    1.322451   0.000000
     3  H    1.092274   2.115379   0.000000
     4  H    1.092274   2.115379   1.851668   0.000000
     5  H    2.115379   1.092274   2.481579   3.096273   0.000000
     6  H    2.115379   1.092274   3.096274   2.481579   1.851668
                    6
     6  H    0.000000
 Stoichiometry    C2H4
 Framework group  C1[X(C2H4)]
 Deg. of freedom    12
 Full point group                 C1      NOp   1
 Largest Abelian subgroup         C1      NOp   1
 Largest concise Abelian subgroup C1      NOp   1
                         Standard orientation:                         
 ---------------------------------------------------------------------
 Center     Atomic      Atomic             Coordinates (Angstroms)
 Number     Number       Type             X           Y           Z
 ---------------------------------------------------------------------
      1          6           0       -0.661225    0.000000    0.000000
      2          6           0        0.661225    0.000000   -0.000001
      3          1           0       -1.240790    0.925834    0.000001
      4          1           0       -1.240789   -0.925834    0.000001
      5          1           0        1.240789    0.925834    0.000002
      6          1           0        1.240790   -0.925834    0.000001
 ---------------------------------------------------------------------
 Rotational constants (GHZ):    146.2533129     30.2627958     25.0743922

 **********************************************************************

            Population analysis using the SCF density.

 **********************************************************************

 Orbital symmetries:
       Occupied  (A) (A) (A) (A) (A) (A) (A) (A)
       Virtual   (A) (A) (A) (A) (A) (A)
 The electronic state is 1-A.
 Alpha  occ. eigenvalues --  -10.36146 -10.36131  -0.80879  -0.61696  -0.50124
 Alpha  occ. eigenvalues --   -0.43912  -0.37516  -0.27428
 Alpha virt. eigenvalues --    0.17974   0.44993   0.51663   0.51748   0.72611
 Alpha virt. eigenvalues --    0.76450
          Condensed to atoms (all electrons):
               1          2          3          4          5          6
     1  C    4.814635   0.605425   0.389748   0.389748  -0.024987  -0.024987
     2  C    0.605425   4.814635  -0.024987  -0.024987   0.389748   0.389748
     3  H    0.389748  -0.024987   0.586903  -0.023569  -0.004935   0.002050
     4  H    0.389748  -0.024987  -0.023569   0.586903   0.002050  -0.004935
     5  H   -0.024987   0.389748  -0.004935   0.002050   0.586903  -0.023569
     6  H   -0.024987   0.389748   0.002050  -0.004935  -0.023569   0.586903
 Mulliken charges:
               1
     1  C   -0.149581
     2  C   -0.149581
     3  H    0.074791
     4  H    0.074791
     5  H    0.074791
     6  H    0.074791
 Sum of Mulliken charges =   0.00000
 Mulliken charges with hydrogens summed into heavy atoms:
               1
     1  C    0.000000
     2  C    0.000000
 Electronic spatial extent (au):  <R**2>=             80.3446
 Charge=              0.0000 electrons
 Dipole moment (field-independent basis, Debye):
    X=              0.0000    Y=              0.0000    Z=              0.0000  Tot=              0.0000
 Quadrupole moment (field-independent basis, Debye-Ang):
   XX=            -11.6977   YY=            -11.6394   ZZ=            -13.4806
   XY=              0.0000   XZ=              0.0000   YZ=              0.0000
 Traceless Quadrupole moment (field-independent basis, Debye-Ang):
   XX=              0.5749   YY=              0.6332   ZZ=             -1.2080
   XY=              0.0000   XZ=              0.0000   YZ=              0.0000
 Octapole moment (field-independent basis, Debye-Ang**2):
  XXX=              0.0000  YYY=              0.0000  ZZZ=              0.0000  XYY=              0.0000
  XXY=              0.0000  XXZ=              0.0000  XZZ=              0.0000  YZZ=              0.0000
  YYZ=              0.0000  XYZ=              0.0000
 Hexadecapole moment (field-independent basis, Debye-Ang**3):
 XXXX=            -62.7436 YYYY=            -23.6785 ZZZZ=            -10.8897 XXXY=              0.0000
 XXXZ=              0.0000 YYYX=              0.0000 YYYZ=              0.0000 ZZZX=              0.0000
 ZZZY=              0.0000 XXYY=            -11.9528 XXZZ=            -12.8608 YYZZ=             -6.3072
 XXYZ=              0.0000 YYXZ=              0.0000 ZZXY=              0.0000
 N-N= 3.337634516712D+01 E-N=-2.461737853349D+02  KE= 7.653758789930D+01
 1\1\GINC-N0286\FOpt\RM062X\STO-3G\C2H4\GDAVIDS3\21-Feb-2017\0\\#n M062
 X/STO-3G Opt\\Ethene M062X STO-3G\\0,1\C,-7.6496533323,3.0411785576,0.
 000000649\C,-6.3322968769,2.9252122881,-0.0000006534\H,-8.2269530737,3
 .0923725976,-0.9258328497\H,-8.2270162865,3.0916319526,0.9258352238\H,
 -5.7549335913,2.8747628847,-0.9258352072\H,-5.7549968393,2.8740217193,
 0.9258328375\\Version=ES64L-G09RevE.01\State=1-A\HF=-77.6087423\RMSD=7
 .605e-09\RMSF=6.419e-05\Dipole=0.0000001,0.0000013,0.\Quadrupole=0.417
 2093,-0.8879453,0.470736,-0.1157886,-0.0000479,-0.0005476\PG=C01 [X(C2
 H4)]\\@


 HE THAT WALD REACHE THE SWEITE ROSE
 SULD NOW AND THEN BE SCRATCHED WT THE SCHARPE BREERES.
 -- PROVERBS AND REASONS OF THE YEAR 1585
           AS REPRINTED IN PAISLEY MAGAZINE 1828.
 Job cpu time:       0 days  0 hours  0 minutes 29.9 seconds.
 File lengths (MBytes):  RWF=      5 Int=      0 D2E=      0 Chk=      1 Scr=      1
 Normal termination of Gaussian 09 at Tue Feb 21 18:15:51 2017.
