 Entering Gaussian System, Link 0=g09
 Input=Ethene_M062X_6-31Gdp.com
 Output=Ethene_M062X_6-31Gdp.log
 Initial command:
 /sw/contrib/gaussian/g09/E01/g09/l1.exe "/scr/Gau-22027.inp" -scrdir="/scr/"
 Entering Link 1 = /sw/contrib/gaussian/g09/E01/g09/l1.exe PID=     22028.
  
 Copyright (c) 1988,1990,1992,1993,1995,1998,2003,2009,2015,
            Gaussian, Inc.  All Rights Reserved.
  
 This is part of the Gaussian(R) 09 program.  It is based on
 the Gaussian(R) 03 system (copyright 2003, Gaussian, Inc.),
 the Gaussian(R) 98 system (copyright 1998, Gaussian, Inc.),
 the Gaussian(R) 94 system (copyright 1995, Gaussian, Inc.),
 the Gaussian 92(TM) system (copyright 1992, Gaussian, Inc.),
 the Gaussian 90(TM) system (copyright 1990, Gaussian, Inc.),
 the Gaussian 88(TM) system (copyright 1988, Gaussian, Inc.),
 the Gaussian 86(TM) system (copyright 1986, Carnegie Mellon
 University), and the Gaussian 82(TM) system (copyright 1983,
 Carnegie Mellon University). Gaussian is a federally registered
 trademark of Gaussian, Inc.
  
 This software contains proprietary and confidential information,
 including trade secrets, belonging to Gaussian, Inc.
  
 This software is provided under written license and may be
 used, copied, transmitted, or stored only in accord with that
 written license.
  
 The following legend is applicable only to US Government
 contracts under FAR:
  
                    RESTRICTED RIGHTS LEGEND
  
 Use, reproduction and disclosure by the US Government is
 subject to restrictions as set forth in subparagraphs (a)
 and (c) of the Commercial Computer Software - Restricted
 Rights clause in FAR 52.227-19.
  
 Gaussian, Inc.
 340 Quinnipiac St., Bldg. 40, Wallingford CT 06492
  
  
 ---------------------------------------------------------------
 Warning -- This program may not be used in any manner that
 competes with the business of Gaussian, Inc. or will provide
 assistance to any competitor of Gaussian, Inc.  The licensee
 of this program is prohibited from giving any competitor of
 Gaussian, Inc. access to this program.  By using this program,
 the user acknowledges that Gaussian, Inc. is engaged in the
 business of creating and licensing software in the field of
 computational chemistry and represents and warrants to the
 licensee that it is not a competitor of Gaussian, Inc. and that
 it will not use this program in any manner prohibited above.
 ---------------------------------------------------------------
  

 Cite this work as:
 Gaussian 09, Revision E.01,
 M. J. Frisch, G. W. Trucks, H. B. Schlegel, G. E. Scuseria, 
 M. A. Robb, J. R. Cheeseman, G. Scalmani, V. Barone, B. Mennucci, 
 G. A. Petersson, H. Nakatsuji, M. Caricato, X. Li, H. P. Hratchian, 
 A. F. Izmaylov, J. Bloino, G. Zheng, J. L. Sonnenberg, M. Hada, 
 M. Ehara, K. Toyota, R. Fukuda, J. Hasegawa, M. Ishida, T. Nakajima, 
 Y. Honda, O. Kitao, H. Nakai, T. Vreven, J. A. Montgomery, Jr., 
 J. E. Peralta, F. Ogliaro, M. Bearpark, J. J. Heyd, E. Brothers, 
 K. N. Kudin, V. N. Staroverov, T. Keith, R. Kobayashi, J. Normand, 
 K. Raghavachari, A. Rendell, J. C. Burant, S. S. Iyengar, J. Tomasi, 
 M. Cossi, N. Rega, J. M. Millam, M. Klene, J. E. Knox, J. B. Cross, 
 V. Bakken, C. Adamo, J. Jaramillo, R. Gomperts, R. E. Stratmann, 
 O. Yazyev, A. J. Austin, R. Cammi, C. Pomelli, J. W. Ochterski, 
 R. L. Martin, K. Morokuma, V. G. Zakrzewski, G. A. Voth, 
 P. Salvador, J. J. Dannenberg, S. Dapprich, A. D. Daniels, 
 O. Farkas, J. B. Foresman, J. V. Ortiz, J. Cioslowski, 
 and D. J. Fox, Gaussian, Inc., Wallingford CT, 2013.
 
 ******************************************
 Gaussian 09:  ES64L-G09RevE.01 30-Nov-2015
                21-Feb-2017 
 ******************************************
 %NProcShared=8
 Will use up to    8 processors via shared memory.
 -----------------------
 #n M062X/6-31G(d,p) Opt
 -----------------------
 1/14=-1,18=20,19=15,26=3,38=1/1,3;
 2/9=110,12=2,17=6,18=5,40=1/2;
 3/5=1,6=6,7=101,11=2,16=1,25=1,30=1,71=1,74=-55/1,2,3;
 4//1;
 5/5=2,38=5/2;
 6/7=2,8=2,9=2,10=2,28=1/1;
 7//1,2,3,16;
 1/14=-1,18=20,19=15,26=3/3(2);
 2/9=110/2;
 99//99;
 2/9=110/2;
 3/5=1,6=6,7=101,11=2,16=1,25=1,30=1,71=1,74=-55/1,2,3;
 4/5=5,16=3,69=1/1;
 5/5=2,38=5/2;
 7//1,2,3,16;
 1/14=-1,18=20,19=15,26=3/3(-5);
 2/9=110/2;
 6/7=2,8=2,9=2,10=2,19=2,28=1/1;
 99/9=1/99;
 --------------------
 Ethene M062X 6-31Gdp
 --------------------
 Symbolic Z-matrix:
 Charge =  0 Multiplicity = 1
 C                    -7.65068   3.04127   0. 
 C                    -6.33127   2.92512   0. 
 H                    -8.2108    3.09095  -0.93056 
 H                    -8.21086   3.09021   0.93056 
 H                    -5.77109   2.87619  -0.93056 
 H                    -5.77115   2.87544   0.93056 
 

 GradGradGradGradGradGradGradGradGradGradGradGradGradGradGradGradGradGrad
 Berny optimization.
 Initialization pass.
                           ----------------------------
                           !    Initial Parameters    !
                           ! (Angstroms and Degrees)  !
 --------------------------                            --------------------------
 ! Name  Definition              Value          Derivative Info.                !
 --------------------------------------------------------------------------------
 ! R1    R(1,2)                  1.3245         estimate D2E/DX2                !
 ! R2    R(1,3)                  1.0873         estimate D2E/DX2                !
 ! R3    R(1,4)                  1.0873         estimate D2E/DX2                !
 ! R4    R(2,5)                  1.0873         estimate D2E/DX2                !
 ! R5    R(2,6)                  1.0873         estimate D2E/DX2                !
 ! A1    A(2,1,3)              121.1437         estimate D2E/DX2                !
 ! A2    A(2,1,4)              121.1435         estimate D2E/DX2                !
 ! A3    A(3,1,4)              117.7128         estimate D2E/DX2                !
 ! A4    A(1,2,5)              121.1435         estimate D2E/DX2                !
 ! A5    A(1,2,6)              121.1437         estimate D2E/DX2                !
 ! A6    A(5,2,6)              117.7128         estimate D2E/DX2                !
 ! D1    D(3,1,2,5)              0.0007         estimate D2E/DX2                !
 ! D2    D(3,1,2,6)            180.0            estimate D2E/DX2                !
 ! D3    D(4,1,2,5)           -179.9994         estimate D2E/DX2                !
 ! D4    D(4,1,2,6)             -0.0001         estimate D2E/DX2                !
 --------------------------------------------------------------------------------
 Trust Radius=3.00D-01 FncErr=1.00D-07 GrdErr=1.00D-06
 Number of steps in this run=     25 maximum allowed number of steps=    100.
 GradGradGradGradGradGradGradGradGradGradGradGradGradGradGradGradGradGrad

                          Input orientation:                          
 ---------------------------------------------------------------------
 Center     Atomic      Atomic             Coordinates (Angstroms)
 Number     Number       Type             X           Y           Z
 ---------------------------------------------------------------------
      1          6           0       -7.650680    3.041270    0.000000
      2          6           0       -6.331270    2.925120    0.000000
      3          1           0       -8.210800    3.090950   -0.930560
      4          1           0       -8.210860    3.090210    0.930560
      5          1           0       -5.771090    2.876190   -0.930560
      6          1           0       -5.771150    2.875440    0.930560
 ---------------------------------------------------------------------
                    Distance matrix (angstroms):
                    1          2          3          4          5
     1  C    0.000000
     2  C    1.324513   0.000000
     3  H    1.087265   2.103824   0.000000
     4  H    1.087262   2.103819   1.861120   0.000000
     5  H    2.103818   1.087262   2.449144   3.076045   0.000000
     6  H    2.103824   1.087265   3.076053   2.449145   1.861120
                    6
     6  H    0.000000
 Stoichiometry    C2H4
 Framework group  C1[X(C2H4)]
 Deg. of freedom    12
 Full point group                 C1      NOp   1
 Largest Abelian subgroup         C1      NOp   1
 Largest concise Abelian subgroup C1      NOp   1
                         Standard orientation:                         
 ---------------------------------------------------------------------
 Center     Atomic      Atomic             Coordinates (Angstroms)
 Number     Number       Type             X           Y           Z
 ---------------------------------------------------------------------
      1          6           0       -0.662256   -0.000001    0.000000
      2          6           0        0.662256    0.000001   -0.000002
      3          1           0       -1.224576    0.930558   -0.000002
      4          1           0       -1.224569   -0.930562    0.000003
      5          1           0        1.224568    0.930562    0.000006
      6          1           0        1.224576   -0.930558    0.000001
 ---------------------------------------------------------------------
 Rotational constants (GHZ):    144.7715521     30.4973425     25.1907084
 Standard basis: 6-31G(d,p) (6D, 7F)
 There are    50 symmetry adapted cartesian basis functions of A   symmetry.
 There are    50 symmetry adapted basis functions of A   symmetry.
    50 basis functions,    84 primitive gaussians,    50 cartesian basis functions
     8 alpha electrons        8 beta electrons
       nuclear repulsion energy        33.4454879269 Hartrees.
 NAtoms=    6 NActive=    6 NUniq=    6 SFac= 1.00D+00 NAtFMM=   60 NAOKFM=F Big=F
 Integral buffers will be    131072 words long.
 Raffenetti 2 integral format.
 Two-electron integral symmetry is turned on.
 One-electron integrals computed using PRISM.
 NBasis=    50 RedAO= T EigKep=  6.75D-03  NBF=    50
 NBsUse=    50 1.00D-06 EigRej= -1.00D+00 NBFU=    50
 ExpMin= 1.61D-01 ExpMax= 3.05D+03 ExpMxC= 4.57D+02 IAcc=1 IRadAn=         1 AccDes= 0.00D+00
 Harris functional with IExCor= 1009 and IRadAn=       1 diagonalized for initial guess.
 HarFok:  IExCor= 1009 AccDes= 0.00D+00 IRadAn=         1 IDoV= 1 UseB2=F ITyADJ=14
 ICtDFT=  3500011 ScaDFX=  1.000000  1.000000  1.000000  1.000000
 FoFCou: FMM=F IPFlag=           0 FMFlag=      100000 FMFlg1=           0
         NFxFlg=           0 DoJE=T BraDBF=F KetDBF=T FulRan=T
         wScrn=  0.000000 ICntrl=     500 IOpCl=  0 I1Cent=   200000004 NGrid=           0
         NMat0=    1 NMatS0=      1 NMatT0=    0 NMatD0=    1 NMtDS0=    0 NMtDT0=    0
 Petite list used in FoFCou.
 Keep R1 ints in memory in canonical form, NReq=1710110.
 Requested convergence on RMS density matrix=1.00D-08 within 128 cycles.
 Requested convergence on MAX density matrix=1.00D-06.
 Requested convergence on             energy=1.00D-06.
 No special actions if energy rises.
 Integral accuracy reduced to 1.0D-05 until final iterations.
 Initial convergence to 1.0D-05 achieved.  Increase integral accuracy.
 SCF Done:  E(RM062X) =  -78.5418707394     A.U. after   11 cycles
            NFock= 11  Conv=0.57D-08     -V/T= 2.0091

 **********************************************************************

            Population analysis using the SCF density.

 **********************************************************************

 Orbital symmetries:
       Occupied  (A) (A) (A) (A) (A) (A) (A) (A)
       Virtual   (A) (A) (A) (A) (A) (A) (A) (A) (A) (A) (A) (A)
                 (A) (A) (A) (A) (A) (A) (A) (A) (A) (A) (A) (A)
                 (A) (A) (A) (A) (A) (A) (A) (A) (A) (A) (A) (A)
                 (A) (A) (A) (A) (A) (A)
 The electronic state is 1-A.
 Alpha  occ. eigenvalues --  -10.54208 -10.54092  -0.85261  -0.65377  -0.53620
 Alpha  occ. eigenvalues --   -0.47486  -0.41103  -0.32600
 Alpha virt. eigenvalues --    0.06339   0.16805   0.18948   0.21032   0.29708
 Alpha virt. eigenvalues --    0.37428   0.51917   0.60443   0.61582   0.69727
 Alpha virt. eigenvalues --    0.70023   0.76615   0.89346   0.91870   0.98349
 Alpha virt. eigenvalues --    0.98672   1.14784   1.25520   1.44289   1.45477
 Alpha virt. eigenvalues --    1.59318   1.89133   1.94294   2.01780   2.07551
 Alpha virt. eigenvalues --    2.09520   2.18441   2.26567   2.39123   2.47581
 Alpha virt. eigenvalues --    2.54905   2.63260   2.70738   2.70883   2.76597
 Alpha virt. eigenvalues --    3.00717   3.16341   3.33337   3.48415   3.75240
 Alpha virt. eigenvalues --    4.20809   4.51868
          Condensed to atoms (all electrons):
               1          2          3          4          5          6
     1  C    4.864923   0.665782   0.395367   0.395368  -0.037729  -0.037728
     2  C    0.665782   4.864922  -0.037728  -0.037729   0.395368   0.395367
     3  H    0.395367  -0.037728   0.560284  -0.037250  -0.008313   0.004649
     4  H    0.395368  -0.037729  -0.037250   0.560284   0.004649  -0.008313
     5  H   -0.037729   0.395368  -0.008313   0.004649   0.560284  -0.037250
     6  H   -0.037728   0.395367   0.004649  -0.008313  -0.037250   0.560284
 Mulliken charges:
               1
     1  C   -0.245983
     2  C   -0.245982
     3  H    0.122991
     4  H    0.122991
     5  H    0.122991
     6  H    0.122991
 Sum of Mulliken charges =   0.00000
 Mulliken charges with hydrogens summed into heavy atoms:
               1
     1  C    0.000000
     2  C    0.000000
 Electronic spatial extent (au):  <R**2>=             81.7457
 Charge=              0.0000 electrons
 Dipole moment (field-independent basis, Debye):
    X=              0.0000    Y=              0.0000    Z=              0.0000  Tot=              0.0000
 Quadrupole moment (field-independent basis, Debye-Ang):
   XX=            -12.0690   YY=            -12.0300   ZZ=            -15.1241
   XY=              0.0000   XZ=              0.0000   YZ=              0.0000
 Traceless Quadrupole moment (field-independent basis, Debye-Ang):
   XX=              1.0054   YY=              1.0443   ZZ=             -2.0497
   XY=              0.0000   XZ=              0.0000   YZ=              0.0000
 Octapole moment (field-independent basis, Debye-Ang**2):
  XXX=              0.0000  YYY=              0.0000  ZZZ=              0.0000  XYY=              0.0000
  XXY=              0.0000  XXZ=              0.0000  XZZ=              0.0000  YZZ=              0.0000
  YYZ=              0.0000  XYZ=              0.0000
 Hexadecapole moment (field-independent basis, Debye-Ang**3):
 XXXX=            -66.3479 YYYY=            -26.1468 ZZZZ=            -15.7317 XXXY=             -0.0001
 XXXZ=              0.0000 YYYX=              0.0000 YYYZ=              0.0000 ZZZX=              0.0000
 ZZZY=              0.0000 XXYY=            -12.8936 XXZZ=            -14.5571 YYZZ=             -7.6444
 XXYZ=              0.0000 YYXZ=              0.0000 ZZXY=              0.0000
 N-N= 3.344548792691D+01 E-N=-2.482806666965D+02  KE= 7.783066194182D+01
 Calling FoFJK, ICntrl=      2127 FMM=F ISym2X=0 I1Cent= 0 IOpClX= 0 NMat=1 NMatS=1 NMatT=0.
 ***** Axes restored to original set *****
 -------------------------------------------------------------------
 Center     Atomic                   Forces (Hartrees/Bohr)
 Number     Number              X              Y              Z
 -------------------------------------------------------------------
      1        6          -0.002402573    0.000211221   -0.000000828
      2        6           0.002402411   -0.000210591    0.000001076
      3        1          -0.000693847    0.000060513    0.001950008
      4        1          -0.000695042    0.000061764   -0.001948563
      5        1           0.000695184   -0.000062510    0.001948349
      6        1           0.000693867   -0.000060396   -0.001950042
 -------------------------------------------------------------------
 Cartesian Forces:  Max     0.002402573 RMS     0.001264369

 GradGradGradGradGradGradGradGradGradGradGradGradGradGradGradGradGradGrad
 Berny optimization.
 FormGI is forming the generalized inverse of G from B-inverse, IUseBI=4.
 Internal  Forces:  Max     0.003806100 RMS     0.001545388
 Search for a local minimum.
 Step number   1 out of a maximum of   25
 All quantities printed in internal units (Hartrees-Bohrs-Radians)
 Mixed Optimization -- RFO/linear search
 Second derivative matrix not updated -- first step.
 The second derivative matrix:
                          R1        R2        R3        R4        R5
           R1           0.60821
           R2           0.00000   0.35131
           R3           0.00000   0.00000   0.35131
           R4           0.00000   0.00000   0.00000   0.35131
           R5           0.00000   0.00000   0.00000   0.00000   0.35131
           A1           0.00000   0.00000   0.00000   0.00000   0.00000
           A2           0.00000   0.00000   0.00000   0.00000   0.00000
           A3           0.00000   0.00000   0.00000   0.00000   0.00000
           A4           0.00000   0.00000   0.00000   0.00000   0.00000
           A5           0.00000   0.00000   0.00000   0.00000   0.00000
           A6           0.00000   0.00000   0.00000   0.00000   0.00000
           D1           0.00000   0.00000   0.00000   0.00000   0.00000
           D2           0.00000   0.00000   0.00000   0.00000   0.00000
           D3           0.00000   0.00000   0.00000   0.00000   0.00000
           D4           0.00000   0.00000   0.00000   0.00000   0.00000
                          A1        A2        A3        A4        A5
           A1           0.16000
           A2           0.00000   0.16000
           A3           0.00000   0.00000   0.16000
           A4           0.00000   0.00000   0.00000   0.16000
           A5           0.00000   0.00000   0.00000   0.00000   0.16000
           A6           0.00000   0.00000   0.00000   0.00000   0.00000
           D1           0.00000   0.00000   0.00000   0.00000   0.00000
           D2           0.00000   0.00000   0.00000   0.00000   0.00000
           D3           0.00000   0.00000   0.00000   0.00000   0.00000
           D4           0.00000   0.00000   0.00000   0.00000   0.00000
                          A6        D1        D2        D3        D4
           A6           0.16000
           D1           0.00000   0.03087
           D2           0.00000   0.00000   0.03087
           D3           0.00000   0.00000   0.00000   0.03087
           D4           0.00000   0.00000   0.00000   0.00000   0.03087
 ITU=  0
     Eigenvalues ---    0.03087   0.03087   0.03087   0.16000   0.16000
     Eigenvalues ---    0.16000   0.16000   0.35131   0.35131   0.35131
     Eigenvalues ---    0.35131   0.60821
 RFO step:  Lambda=-1.33803812D-04 EMin= 3.08730960D-02
 Linear search not attempted -- first point.
 Iteration  1 RMS(Cart)=  0.00880309 RMS(Int)=  0.00002718
 Iteration  2 RMS(Cart)=  0.00002708 RMS(Int)=  0.00000000
 Iteration  3 RMS(Cart)=  0.00000000 RMS(Int)=  0.00000000
 Variable       Old X    -DE/DX   Delta X   Delta X   Delta X     New X
                                 (Linear)    (Quad)   (Total)
    R1        2.50297   0.00381   0.00000   0.00626   0.00626   2.50922
    R2        2.05463  -0.00131   0.00000  -0.00372  -0.00372   2.05091
    R3        2.05463  -0.00131   0.00000  -0.00372  -0.00372   2.05091
    R4        2.05463  -0.00131   0.00000  -0.00372  -0.00372   2.05091
    R5        2.05463  -0.00131   0.00000  -0.00372  -0.00372   2.05091
    A1        2.11436   0.00110   0.00000   0.00686   0.00686   2.12122
    A2        2.11435   0.00110   0.00000   0.00687   0.00687   2.12122
    A3        2.05448  -0.00220   0.00000  -0.01373  -0.01373   2.04075
    A4        2.11435   0.00110   0.00000   0.00687   0.00687   2.12122
    A5        2.11436   0.00110   0.00000   0.00686   0.00686   2.12122
    A6        2.05448  -0.00220   0.00000  -0.01373  -0.01373   2.04075
    D1        0.00001   0.00000   0.00000  -0.00001  -0.00001   0.00000
    D2        3.14159   0.00000   0.00000   0.00000   0.00000  -3.14159
    D3       -3.14158   0.00000   0.00000  -0.00001  -0.00001   3.14159
    D4        0.00000   0.00000   0.00000   0.00000   0.00000   0.00000
         Item               Value     Threshold  Converged?
 Maximum Force            0.003806     0.000450     NO 
 RMS     Force            0.001545     0.000300     NO 
 Maximum Displacement     0.013179     0.001800     NO 
 RMS     Displacement     0.008797     0.001200     NO 
 Predicted change in Energy=-6.694608D-05
 GradGradGradGradGradGradGradGradGradGradGradGradGradGradGradGradGradGrad

                          Input orientation:                          
 ---------------------------------------------------------------------
 Center     Atomic      Atomic             Coordinates (Angstroms)
 Number     Number       Type             X           Y           Z
 ---------------------------------------------------------------------
      1          6           0       -7.652329    3.041416    0.000001
      2          6           0       -6.329621    2.924979   -0.000001
      3          1           0       -8.217770    3.091563   -0.924999
      4          1           0       -8.217834    3.090823    0.925002
      5          1           0       -5.764116    2.875569   -0.925002
      6          1           0       -5.764180    2.874829    0.924999
 ---------------------------------------------------------------------
                    Distance matrix (angstroms):
                    1          2          3          4          5
     1  C    0.000000
     2  C    1.327823   0.000000
     3  H    1.085294   2.109142   0.000000
     4  H    1.085294   2.109143   1.850001   0.000000
     5  H    2.109143   1.085294   2.463143   3.080516   0.000000
     6  H    2.109142   1.085294   3.080515   2.463143   1.850001
                    6
     6  H    0.000000
 Stoichiometry    C2H4
 Framework group  C1[X(C2H4)]
 Deg. of freedom    12
 Full point group                 C1      NOp   1
 Largest Abelian subgroup         C1      NOp   1
 Largest concise Abelian subgroup C1      NOp   1
                         Standard orientation:                         
 ---------------------------------------------------------------------
 Center     Atomic      Atomic             Coordinates (Angstroms)
 Number     Number       Type             X           Y           Z
 ---------------------------------------------------------------------
      1          6           0       -0.663912    0.000000    0.000000
      2          6           0        0.663912    0.000000    0.000001
      3          1           0       -1.231571    0.925001   -0.000001
      4          1           0       -1.231572   -0.925000   -0.000001
      5          1           0        1.231572    0.925000   -0.000002
      6          1           0        1.231571   -0.925001   -0.000001
 ---------------------------------------------------------------------
 Rotational constants (GHZ):    146.5170748     30.2744741     25.0901551
 Standard basis: 6-31G(d,p) (6D, 7F)
 There are    50 symmetry adapted cartesian basis functions of A   symmetry.
 There are    50 symmetry adapted basis functions of A   symmetry.
    50 basis functions,    84 primitive gaussians,    50 cartesian basis functions
     8 alpha electrons        8 beta electrons
       nuclear repulsion energy        33.4160513592 Hartrees.
 NAtoms=    6 NActive=    6 NUniq=    6 SFac= 1.00D+00 NAtFMM=   60 NAOKFM=F Big=F
 Integral buffers will be    131072 words long.
 Raffenetti 2 integral format.
 Two-electron integral symmetry is turned on.
 One-electron integrals computed using PRISM.
 NBasis=    50 RedAO= T EigKep=  6.85D-03  NBF=    50
 NBsUse=    50 1.00D-06 EigRej= -1.00D+00 NBFU=    50
 Initial guess from the checkpoint file:  "/scr/Gau-22028.chk"
 B after Tr=     0.000000    0.000000    0.000000
         Rot=    1.000000    0.000000    0.000000    0.000001 Ang=   0.00 deg.
 Keep R1 ints in memory in canonical form, NReq=1710110.
 Requested convergence on RMS density matrix=1.00D-08 within 128 cycles.
 Requested convergence on MAX density matrix=1.00D-06.
 Requested convergence on             energy=1.00D-06.
 No special actions if energy rises.
 SCF Done:  E(RM062X) =  -78.5419424358     A.U. after    7 cycles
            NFock=  7  Conv=0.16D-08     -V/T= 2.0091
 Calling FoFJK, ICntrl=      2127 FMM=F ISym2X=0 I1Cent= 0 IOpClX= 0 NMat=1 NMatS=1 NMatT=0.
 ***** Axes restored to original set *****
 -------------------------------------------------------------------
 Center     Atomic                   Forces (Hartrees/Bohr)
 Number     Number              X              Y              Z
 -------------------------------------------------------------------
      1        6           0.001894035   -0.000166808    0.000000062
      2        6          -0.001894135    0.000166435   -0.000000080
      3        1          -0.000354081    0.000031188    0.000064751
      4        1          -0.000353950    0.000031269   -0.000064875
      5        1           0.000354003   -0.000031043    0.000064877
      6        1           0.000354128   -0.000031041   -0.000064735
 -------------------------------------------------------------------
 Cartesian Forces:  Max     0.001894135 RMS     0.000656282

 GradGradGradGradGradGradGradGradGradGradGradGradGradGradGradGradGradGrad
 Berny optimization.
 Using GEDIIS/GDIIS optimizer.
 FormGI is forming the generalized inverse of G from B-inverse, IUseBI=4.
 Internal  Forces:  Max     0.001190586 RMS     0.000376121
 Search for a local minimum.
 Step number   2 out of a maximum of   25
 All quantities printed in internal units (Hartrees-Bohrs-Radians)
 Mixed Optimization -- En-DIIS/RFO-DIIS
 Update second derivatives using D2CorX and points    1    2
 DE= -7.17D-05 DEPred=-6.69D-05 R= 1.07D+00
 TightC=F SS=  1.41D+00  RLast= 2.57D-02 DXNew= 5.0454D-01 7.7062D-02
 Trust test= 1.07D+00 RLast= 2.57D-02 DXMaxT set to 3.00D-01
 The second derivative matrix:
                          R1        R2        R3        R4        R5
           R1           0.70089
           R2          -0.02067   0.35519
           R3          -0.02064   0.00387   0.35518
           R4          -0.02063   0.00387   0.00387   0.35518
           R5          -0.02067   0.00388   0.00387   0.00387   0.35519
           A1           0.00369   0.00068   0.00068   0.00068   0.00068
           A2           0.00370   0.00068   0.00067   0.00067   0.00068
           A3          -0.00739  -0.00135  -0.00135  -0.00135  -0.00135
           A4           0.00370   0.00068   0.00068   0.00067   0.00068
           A5           0.00369   0.00068   0.00068   0.00068   0.00068
           A6          -0.00739  -0.00135  -0.00135  -0.00135  -0.00135
           D1          -0.00001   0.00000   0.00000   0.00000   0.00000
           D2           0.00001   0.00000   0.00000   0.00000   0.00000
           D3          -0.00001   0.00000   0.00000   0.00000   0.00000
           D4           0.00000   0.00000   0.00000   0.00000   0.00000
                          A1        A2        A3        A4        A5
           A1           0.15706
           A2          -0.00294   0.15706
           A3           0.00588   0.00589   0.14823
           A4          -0.00294  -0.00294   0.00589   0.15706
           A5          -0.00294  -0.00294   0.00589  -0.00294   0.15706
           A6           0.00589   0.00589  -0.01177   0.00589   0.00589
           D1           0.00000   0.00000   0.00000   0.00000   0.00000
           D2           0.00000   0.00000   0.00000   0.00000   0.00000
           D3           0.00000   0.00000   0.00000   0.00000   0.00000
           D4           0.00000   0.00000   0.00000   0.00000   0.00000
                          A6        D1        D2        D3        D4
           A6           0.14823
           D1           0.00000   0.03087
           D2           0.00000   0.00000   0.03087
           D3           0.00000   0.00000   0.00000   0.03087
           D4           0.00000   0.00000   0.00000   0.00000   0.03087
 ITU=  1  0
 Use linear search instead of GDIIS.
     Eigenvalues ---    0.03087   0.03087   0.03087   0.12427   0.16000
     Eigenvalues ---    0.16000   0.16000   0.35131   0.35131   0.35131
     Eigenvalues ---    0.36194   0.70617
 RFO step:  Lambda=-6.74460032D-06 EMin= 3.08730958D-02
 Quartic linear search produced a step of  0.07701.
 Iteration  1 RMS(Cart)=  0.00165023 RMS(Int)=  0.00000191
 Iteration  2 RMS(Cart)=  0.00000191 RMS(Int)=  0.00000000
 Iteration  3 RMS(Cart)=  0.00000000 RMS(Int)=  0.00000000
 Variable       Old X    -DE/DX   Delta X   Delta X   Delta X     New X
                                 (Linear)    (Quad)   (Total)
    R1        2.50922  -0.00119   0.00048  -0.00228  -0.00179   2.50743
    R2        2.05091   0.00013  -0.00029   0.00050   0.00021   2.05112
    R3        2.05091   0.00013  -0.00029   0.00050   0.00021   2.05112
    R4        2.05091   0.00013  -0.00029   0.00050   0.00021   2.05112
    R5        2.05091   0.00013  -0.00029   0.00050   0.00021   2.05112
    A1        2.12122   0.00023   0.00053   0.00137   0.00189   2.12311
    A2        2.12122   0.00023   0.00053   0.00137   0.00189   2.12311
    A3        2.04075  -0.00046  -0.00106  -0.00273  -0.00379   2.03696
    A4        2.12122   0.00023   0.00053   0.00137   0.00189   2.12311
    A5        2.12122   0.00023   0.00053   0.00137   0.00189   2.12311
    A6        2.04075  -0.00046  -0.00106  -0.00273  -0.00379   2.03696
    D1        0.00000   0.00000   0.00000   0.00000   0.00000   0.00000
    D2       -3.14159   0.00000   0.00000  -0.00001  -0.00001   3.14159
    D3        3.14159   0.00000   0.00000   0.00001   0.00001  -3.14159
    D4        0.00000   0.00000   0.00000   0.00000   0.00000   0.00000
         Item               Value     Threshold  Converged?
 Maximum Force            0.001191     0.000450     NO 
 RMS     Force            0.000376     0.000300     NO 
 Maximum Displacement     0.002516     0.001800     NO 
 RMS     Displacement     0.001651     0.001200     NO 
 Predicted change in Energy=-3.741608D-06
 GradGradGradGradGradGradGradGradGradGradGradGradGradGradGradGradGradGrad

                          Input orientation:                          
 ---------------------------------------------------------------------
 Center     Atomic      Atomic             Coordinates (Angstroms)
 Number     Number       Type             X           Y           Z
 ---------------------------------------------------------------------
      1          6           0       -7.651857    3.041373    0.000001
      2          6           0       -6.330094    2.925019   -0.000001
      3          1           0       -8.219102    3.091681   -0.924018
      4          1           0       -8.219165    3.090941    0.924020
      5          1           0       -5.762785    2.875453   -0.924020
      6          1           0       -5.762848    2.874713    0.924018
 ---------------------------------------------------------------------
                    Distance matrix (angstroms):
                    1          2          3          4          5
     1  C    0.000000
     2  C    1.326874   0.000000
     3  H    1.085407   2.109487   0.000000
     4  H    1.085407   2.109487   1.848039   0.000000
     5  H    2.109487   1.085407   2.465816   3.081476   0.000000
     6  H    2.109487   1.085407   3.081476   2.465816   1.848039
                    6
     6  H    0.000000
 Stoichiometry    C2H4
 Framework group  C1[X(C2H4)]
 Deg. of freedom    12
 Full point group                 C1      NOp   1
 Largest Abelian subgroup         C1      NOp   1
 Largest concise Abelian subgroup C1      NOp   1
                         Standard orientation:                         
 ---------------------------------------------------------------------
 Center     Atomic      Atomic             Coordinates (Angstroms)
 Number     Number       Type             X           Y           Z
 ---------------------------------------------------------------------
      1          6           0       -0.663437    0.000000    0.000000
      2          6           0        0.663437    0.000000    0.000000
      3          1           0       -1.232908    0.924019    0.000001
      4          1           0       -1.232908   -0.924019    0.000001
      5          1           0        1.232908    0.924019    0.000001
      6          1           0        1.232908   -0.924019    0.000001
 ---------------------------------------------------------------------
 Rotational constants (GHZ):    146.8283785     30.2778107     25.1015612
 Standard basis: 6-31G(d,p) (6D, 7F)
 There are    50 symmetry adapted cartesian basis functions of A   symmetry.
 There are    50 symmetry adapted basis functions of A   symmetry.
    50 basis functions,    84 primitive gaussians,    50 cartesian basis functions
     8 alpha electrons        8 beta electrons
       nuclear repulsion energy        33.4241464596 Hartrees.
 NAtoms=    6 NActive=    6 NUniq=    6 SFac= 1.00D+00 NAtFMM=   60 NAOKFM=F Big=F
 Integral buffers will be    131072 words long.
 Raffenetti 2 integral format.
 Two-electron integral symmetry is turned on.
 One-electron integrals computed using PRISM.
 NBasis=    50 RedAO= T EigKep=  6.83D-03  NBF=    50
 NBsUse=    50 1.00D-06 EigRej= -1.00D+00 NBFU=    50
 Initial guess from the checkpoint file:  "/scr/Gau-22028.chk"
 B after Tr=     0.000000    0.000000    0.000000
         Rot=    1.000000    0.000000    0.000000    0.000000 Ang=   0.00 deg.
 Keep R1 ints in memory in canonical form, NReq=1710110.
 Requested convergence on RMS density matrix=1.00D-08 within 128 cycles.
 Requested convergence on MAX density matrix=1.00D-06.
 Requested convergence on             energy=1.00D-06.
 No special actions if energy rises.
 SCF Done:  E(RM062X) =  -78.5419468175     A.U. after    6 cycles
            NFock=  6  Conv=0.40D-08     -V/T= 2.0091
 Calling FoFJK, ICntrl=      2127 FMM=F ISym2X=0 I1Cent= 0 IOpClX= 0 NMat=1 NMatS=1 NMatT=0.
 ***** Axes restored to original set *****
 -------------------------------------------------------------------
 Center     Atomic                   Forces (Hartrees/Bohr)
 Number     Number              X              Y              Z
 -------------------------------------------------------------------
      1        6           0.000420001   -0.000036851    0.000000028
      2        6          -0.000419993    0.000037084   -0.000000042
      3        1          -0.000091755    0.000008032   -0.000054881
      4        1          -0.000091707    0.000007999    0.000054829
      5        1           0.000091701   -0.000008100   -0.000054816
      6        1           0.000091753   -0.000008164    0.000054883
 -------------------------------------------------------------------
 Cartesian Forces:  Max     0.000420001 RMS     0.000149347

 GradGradGradGradGradGradGradGradGradGradGradGradGradGradGradGradGradGrad
 Berny optimization.
 Using GEDIIS/GDIIS optimizer.
 FormGI is forming the generalized inverse of G from B-inverse, IUseBI=4.
 Internal  Forces:  Max     0.000237453 RMS     0.000084182
 Search for a local minimum.
 Step number   3 out of a maximum of   25
 All quantities printed in internal units (Hartrees-Bohrs-Radians)
 Mixed Optimization -- En-DIIS/RFO-DIIS
 Swapping is turned off.
 Update second derivatives using D2CorX and points    1    2    3
 DE= -4.38D-06 DEPred=-3.74D-06 R= 1.17D+00
 TightC=F SS=  1.41D+00  RLast= 6.82D-03 DXNew= 5.0454D-01 2.0453D-02
 Trust test= 1.17D+00 RLast= 6.82D-03 DXMaxT set to 3.00D-01
 The second derivative matrix:
                          R1        R2        R3        R4        R5
           R1           0.66272
           R2          -0.00940   0.35483
           R3          -0.00938   0.00352   0.35483
           R4          -0.00938   0.00352   0.00352   0.35483
           R5          -0.00940   0.00353   0.00352   0.00352   0.35483
           A1           0.01070  -0.00260  -0.00260  -0.00260  -0.00260
           A2           0.01071  -0.00260  -0.00260  -0.00260  -0.00260
           A3          -0.02141   0.00520   0.00520   0.00520   0.00521
           A4           0.01071  -0.00260  -0.00260  -0.00260  -0.00260
           A5           0.01070  -0.00260  -0.00260  -0.00260  -0.00260
           A6          -0.02141   0.00520   0.00520   0.00520   0.00521
           D1          -0.00001   0.00000   0.00000   0.00000   0.00000
           D2           0.00002   0.00000   0.00000   0.00000   0.00000
           D3          -0.00002   0.00000   0.00000   0.00000   0.00000
           D4           0.00000   0.00000   0.00000   0.00000   0.00000
                          A1        A2        A3        A4        A5
           A1           0.15624
           A2          -0.00376   0.15624
           A3           0.00751   0.00751   0.14498
           A4          -0.00376  -0.00376   0.00751   0.15624
           A5          -0.00376  -0.00376   0.00751  -0.00376   0.15624
           A6           0.00751   0.00751  -0.01502   0.00751   0.00751
           D1           0.00000   0.00000   0.00000   0.00000   0.00000
           D2           0.00000   0.00000   0.00001   0.00000   0.00000
           D3           0.00000   0.00000  -0.00001   0.00000   0.00000
           D4           0.00000   0.00000   0.00000   0.00000   0.00000
                          A6        D1        D2        D3        D4
           A6           0.14497
           D1           0.00000   0.03087
           D2           0.00001   0.00000   0.03087
           D3          -0.00001   0.00000   0.00000   0.03087
           D4           0.00000   0.00000   0.00000   0.00000   0.03087
 ITU=  1  1  0
     Eigenvalues ---    0.03087   0.03087   0.03087   0.11132   0.16000
     Eigenvalues ---    0.16000   0.16000   0.35131   0.35131   0.35131
     Eigenvalues ---    0.36517   0.66654
 En-DIIS/RFO-DIIS IScMMF=        0 using points:     3    2
 RFO step:  Lambda=-1.79145087D-07.
 DidBck=F Rises=F RFO-DIIS coefs:    1.20603   -0.20603
 Iteration  1 RMS(Cart)=  0.00031210 RMS(Int)=  0.00000008
 Iteration  2 RMS(Cart)=  0.00000009 RMS(Int)=  0.00000000
 Variable       Old X    -DE/DX   Delta X   Delta X   Delta X     New X
                                 (Linear)    (Quad)   (Total)
    R1        2.50743  -0.00024  -0.00037  -0.00004  -0.00041   2.50702
    R2        2.05112   0.00010   0.00004   0.00024   0.00028   2.05140
    R3        2.05112   0.00009   0.00004   0.00024   0.00028   2.05140
    R4        2.05112   0.00009   0.00004   0.00024   0.00028   2.05140
    R5        2.05112   0.00010   0.00004   0.00024   0.00028   2.05140
    A1        2.12311   0.00003   0.00039  -0.00003   0.00036   2.12347
    A2        2.12311   0.00003   0.00039  -0.00003   0.00036   2.12347
    A3        2.03696  -0.00007  -0.00078   0.00006  -0.00072   2.03624
    A4        2.12311   0.00003   0.00039  -0.00003   0.00036   2.12347
    A5        2.12311   0.00003   0.00039  -0.00003   0.00036   2.12347
    A6        2.03696  -0.00007  -0.00078   0.00006  -0.00072   2.03624
    D1        0.00000   0.00000   0.00000   0.00000   0.00000   0.00000
    D2        3.14159   0.00000   0.00000   0.00001   0.00000  -3.14159
    D3       -3.14159   0.00000   0.00000   0.00000   0.00000   3.14159
    D4        0.00000   0.00000   0.00000   0.00000   0.00000   0.00000
         Item               Value     Threshold  Converged?
 Maximum Force            0.000237     0.000450     YES
 RMS     Force            0.000084     0.000300     YES
 Maximum Displacement     0.000566     0.001800     YES
 RMS     Displacement     0.000312     0.001200     YES
 Predicted change in Energy=-1.751804D-07
 Optimization completed.
    -- Stationary point found.
                           ----------------------------
                           !   Optimized Parameters   !
                           ! (Angstroms and Degrees)  !
 --------------------------                            --------------------------
 ! Name  Definition              Value          Derivative Info.                !
 --------------------------------------------------------------------------------
 ! R1    R(1,2)                  1.3269         -DE/DX =   -0.0002              !
 ! R2    R(1,3)                  1.0854         -DE/DX =    0.0001              !
 ! R3    R(1,4)                  1.0854         -DE/DX =    0.0001              !
 ! R4    R(2,5)                  1.0854         -DE/DX =    0.0001              !
 ! R5    R(2,6)                  1.0854         -DE/DX =    0.0001              !
 ! A1    A(2,1,3)              121.6454         -DE/DX =    0.0                 !
 ! A2    A(2,1,4)              121.6454         -DE/DX =    0.0                 !
 ! A3    A(3,1,4)              116.7092         -DE/DX =   -0.0001              !
 ! A4    A(1,2,5)              121.6454         -DE/DX =    0.0                 !
 ! A5    A(1,2,6)              121.6454         -DE/DX =    0.0                 !
 ! A6    A(5,2,6)              116.7092         -DE/DX =   -0.0001              !
 ! D1    D(3,1,2,5)              0.0            -DE/DX =    0.0                 !
 ! D2    D(3,1,2,6)           -180.0001         -DE/DX =    0.0                 !
 ! D3    D(4,1,2,5)            180.0001         -DE/DX =    0.0                 !
 ! D4    D(4,1,2,6)              0.0            -DE/DX =    0.0                 !
 --------------------------------------------------------------------------------
 GradGradGradGradGradGradGradGradGradGradGradGradGradGradGradGradGradGrad

                          Input orientation:                          
 ---------------------------------------------------------------------
 Center     Atomic      Atomic             Coordinates (Angstroms)
 Number     Number       Type             X           Y           Z
 ---------------------------------------------------------------------
      1          6           0       -7.651857    3.041373    0.000001
      2          6           0       -6.330094    2.925019   -0.000001
      3          1           0       -8.219102    3.091681   -0.924018
      4          1           0       -8.219165    3.090941    0.924020
      5          1           0       -5.762785    2.875453   -0.924020
      6          1           0       -5.762848    2.874713    0.924018
 ---------------------------------------------------------------------
                    Distance matrix (angstroms):
                    1          2          3          4          5
     1  C    0.000000
     2  C    1.326874   0.000000
     3  H    1.085407   2.109487   0.000000
     4  H    1.085407   2.109487   1.848039   0.000000
     5  H    2.109487   1.085407   2.465816   3.081476   0.000000
     6  H    2.109487   1.085407   3.081476   2.465816   1.848039
                    6
     6  H    0.000000
 Stoichiometry    C2H4
 Framework group  C1[X(C2H4)]
 Deg. of freedom    12
 Full point group                 C1      NOp   1
 Largest Abelian subgroup         C1      NOp   1
 Largest concise Abelian subgroup C1      NOp   1
                         Standard orientation:                         
 ---------------------------------------------------------------------
 Center     Atomic      Atomic             Coordinates (Angstroms)
 Number     Number       Type             X           Y           Z
 ---------------------------------------------------------------------
      1          6           0       -0.663437    0.000000    0.000000
      2          6           0        0.663437    0.000000    0.000000
      3          1           0       -1.232908    0.924019    0.000001
      4          1           0       -1.232908   -0.924019    0.000001
      5          1           0        1.232908    0.924019    0.000001
      6          1           0        1.232908   -0.924019    0.000001
 ---------------------------------------------------------------------
 Rotational constants (GHZ):    146.8283785     30.2778107     25.1015612

 **********************************************************************

            Population analysis using the SCF density.

 **********************************************************************

 Orbital symmetries:
       Occupied  (A) (A) (A) (A) (A) (A) (A) (A)
       Virtual   (A) (A) (A) (A) (A) (A) (A) (A) (A) (A) (A) (A)
                 (A) (A) (A) (A) (A) (A) (A) (A) (A) (A) (A) (A)
                 (A) (A) (A) (A) (A) (A) (A) (A) (A) (A) (A) (A)
                 (A) (A) (A) (A) (A) (A)
 The electronic state is 1-A.
 Alpha  occ. eigenvalues --  -10.54236 -10.54121  -0.85194  -0.65584  -0.53471
 Alpha  occ. eigenvalues --   -0.47695  -0.41078  -0.32559
 Alpha virt. eigenvalues --    0.06258   0.16993   0.18975   0.21001   0.29725
 Alpha virt. eigenvalues --    0.37538   0.52019   0.60481   0.61132   0.69894
 Alpha virt. eigenvalues --    0.69979   0.76296   0.89486   0.91927   0.98618
 Alpha virt. eigenvalues --    0.98965   1.14612   1.24192   1.44479   1.45194
 Alpha virt. eigenvalues --    1.59409   1.89273   1.95008   2.01025   2.09217
 Alpha virt. eigenvalues --    2.09361   2.17957   2.25955   2.39681   2.47360
 Alpha virt. eigenvalues --    2.54715   2.64105   2.70412   2.70458   2.77524
 Alpha virt. eigenvalues --    3.02530   3.16277   3.33829   3.47617   3.76566
 Alpha virt. eigenvalues --    4.20825   4.51645
          Condensed to atoms (all electrons):
               1          2          3          4          5          6
     1  C    4.863875   0.666236   0.395269   0.395268  -0.037093  -0.037093
     2  C    0.666236   4.863875  -0.037093  -0.037093   0.395268   0.395268
     3  H    0.395269  -0.037093   0.560511  -0.038414  -0.008085   0.004582
     4  H    0.395268  -0.037093  -0.038414   0.560511   0.004582  -0.008085
     5  H   -0.037093   0.395268  -0.008085   0.004582   0.560511  -0.038414
     6  H   -0.037093   0.395268   0.004582  -0.008085  -0.038414   0.560511
 Mulliken charges:
               1
     1  C   -0.246461
     2  C   -0.246461
     3  H    0.123231
     4  H    0.123231
     5  H    0.123231
     6  H    0.123231
 Sum of Mulliken charges =   0.00000
 Mulliken charges with hydrogens summed into heavy atoms:
               1
     1  C    0.000000
     2  C    0.000000
 Electronic spatial extent (au):  <R**2>=             81.9070
 Charge=              0.0000 electrons
 Dipole moment (field-independent basis, Debye):
    X=              0.0000    Y=              0.0000    Z=              0.0000  Tot=              0.0000
 Quadrupole moment (field-independent basis, Debye-Ang):
   XX=            -11.9817   YY=            -12.0870   ZZ=            -15.1208
   XY=              0.0000   XZ=              0.0000   YZ=              0.0000
 Traceless Quadrupole moment (field-independent basis, Debye-Ang):
   XX=              1.0814   YY=              0.9762   ZZ=             -2.0576
   XY=              0.0000   XZ=              0.0000   YZ=              0.0000
 Octapole moment (field-independent basis, Debye-Ang**2):
  XXX=              0.0000  YYY=              0.0000  ZZZ=              0.0000  XYY=              0.0000
  XXY=              0.0000  XXZ=              0.0000  XZZ=              0.0000  YZZ=              0.0000
  YYZ=              0.0000  XYZ=              0.0000
 Hexadecapole moment (field-independent basis, Debye-Ang**3):
 XXXX=            -66.4032 YYYY=            -26.0701 ZZZZ=            -15.7299 XXXY=              0.0000
 XXXZ=              0.0000 YYYX=              0.0000 YYYZ=              0.0000 ZZZX=              0.0000
 ZZZY=              0.0000 XXYY=            -12.9236 XXZZ=            -14.6140 YYZZ=             -7.6089
 XXYZ=              0.0000 YYXZ=              0.0000 ZZXY=              0.0000
 N-N= 3.342414645956D+01 E-N=-2.482352866559D+02  KE= 7.783187748663D+01
 1\1\GINC-N0286\FOpt\RM062X\6-31G(d,p)\C2H4\GDAVIDS3\21-Feb-2017\0\\#n 
 M062X/6-31G(d,p) Opt\\Ethene M062X 6-31Gdp\\0,1\C,-7.6518565416,3.0413
 72942,0.0000006931\C,-6.3300935599,2.9250191358,-0.0000006816\H,-8.219
 1016839,3.091680677,-0.9240179096\H,-8.2191651007,3.0909410677,0.92402
 045\H,-5.7627848719,2.8754527118,-0.9240204921\H,-5.762848242,2.874713
 4658,0.9240179401\\Version=ES64L-G09RevE.01\State=1-A\HF=-78.5419468\R
 MSD=3.980e-09\RMSF=1.493e-04\Dipole=-0.0000001,0.000001,0.\Quadrupole=
 0.786067,-1.5118414,0.7257744,-0.203863,-0.0000798,-0.0009023\PG=C01 [
 X(C2H4)]\\@


 MANHOOD BEGINS BY TRYING TO SHAVE FACE,
 AND ENDS BY TRYING TO SAVE FACE.
 Job cpu time:       0 days  0 hours  0 minutes 45.9 seconds.
 File lengths (MBytes):  RWF=      5 Int=      0 D2E=      0 Chk=      1 Scr=      1
 Normal termination of Gaussian 09 at Tue Feb 21 18:30:37 2017.
