 Entering Gaussian System, Link 0=g09
 Input=Ethene_M062X_3-21G.com
 Output=Ethene_M062X_3-21G.log
 Initial command:
 /sw/contrib/gaussian/g09/E01/g09/l1.exe "/scr/Gau-26774.inp" -scrdir="/scr/"
 Entering Link 1 = /sw/contrib/gaussian/g09/E01/g09/l1.exe PID=     26775.
  
 Copyright (c) 1988,1990,1992,1993,1995,1998,2003,2009,2015,
            Gaussian, Inc.  All Rights Reserved.
  
 This is part of the Gaussian(R) 09 program.  It is based on
 the Gaussian(R) 03 system (copyright 2003, Gaussian, Inc.),
 the Gaussian(R) 98 system (copyright 1998, Gaussian, Inc.),
 the Gaussian(R) 94 system (copyright 1995, Gaussian, Inc.),
 the Gaussian 92(TM) system (copyright 1992, Gaussian, Inc.),
 the Gaussian 90(TM) system (copyright 1990, Gaussian, Inc.),
 the Gaussian 88(TM) system (copyright 1988, Gaussian, Inc.),
 the Gaussian 86(TM) system (copyright 1986, Carnegie Mellon
 University), and the Gaussian 82(TM) system (copyright 1983,
 Carnegie Mellon University). Gaussian is a federally registered
 trademark of Gaussian, Inc.
  
 This software contains proprietary and confidential information,
 including trade secrets, belonging to Gaussian, Inc.
  
 This software is provided under written license and may be
 used, copied, transmitted, or stored only in accord with that
 written license.
  
 The following legend is applicable only to US Government
 contracts under FAR:
  
                    RESTRICTED RIGHTS LEGEND
  
 Use, reproduction and disclosure by the US Government is
 subject to restrictions as set forth in subparagraphs (a)
 and (c) of the Commercial Computer Software - Restricted
 Rights clause in FAR 52.227-19.
  
 Gaussian, Inc.
 340 Quinnipiac St., Bldg. 40, Wallingford CT 06492
  
  
 ---------------------------------------------------------------
 Warning -- This program may not be used in any manner that
 competes with the business of Gaussian, Inc. or will provide
 assistance to any competitor of Gaussian, Inc.  The licensee
 of this program is prohibited from giving any competitor of
 Gaussian, Inc. access to this program.  By using this program,
 the user acknowledges that Gaussian, Inc. is engaged in the
 business of creating and licensing software in the field of
 computational chemistry and represents and warrants to the
 licensee that it is not a competitor of Gaussian, Inc. and that
 it will not use this program in any manner prohibited above.
 ---------------------------------------------------------------
  

 Cite this work as:
 Gaussian 09, Revision E.01,
 M. J. Frisch, G. W. Trucks, H. B. Schlegel, G. E. Scuseria, 
 M. A. Robb, J. R. Cheeseman, G. Scalmani, V. Barone, B. Mennucci, 
 G. A. Petersson, H. Nakatsuji, M. Caricato, X. Li, H. P. Hratchian, 
 A. F. Izmaylov, J. Bloino, G. Zheng, J. L. Sonnenberg, M. Hada, 
 M. Ehara, K. Toyota, R. Fukuda, J. Hasegawa, M. Ishida, T. Nakajima, 
 Y. Honda, O. Kitao, H. Nakai, T. Vreven, J. A. Montgomery, Jr., 
 J. E. Peralta, F. Ogliaro, M. Bearpark, J. J. Heyd, E. Brothers, 
 K. N. Kudin, V. N. Staroverov, T. Keith, R. Kobayashi, J. Normand, 
 K. Raghavachari, A. Rendell, J. C. Burant, S. S. Iyengar, J. Tomasi, 
 M. Cossi, N. Rega, J. M. Millam, M. Klene, J. E. Knox, J. B. Cross, 
 V. Bakken, C. Adamo, J. Jaramillo, R. Gomperts, R. E. Stratmann, 
 O. Yazyev, A. J. Austin, R. Cammi, C. Pomelli, J. W. Ochterski, 
 R. L. Martin, K. Morokuma, V. G. Zakrzewski, G. A. Voth, 
 P. Salvador, J. J. Dannenberg, S. Dapprich, A. D. Daniels, 
 O. Farkas, J. B. Foresman, J. V. Ortiz, J. Cioslowski, 
 and D. J. Fox, Gaussian, Inc., Wallingford CT, 2013.
 
 ******************************************
 Gaussian 09:  ES64L-G09RevE.01 30-Nov-2015
                21-Feb-2017 
 ******************************************
 %NProcShared=8
 Will use up to    8 processors via shared memory.
 ------------------
 #n M062X/3-21G Opt
 ------------------
 1/14=-1,18=20,19=15,26=3,38=1/1,3;
 2/9=110,12=2,17=6,18=5,40=1/2;
 3/5=5,11=2,16=1,25=1,30=1,71=1,74=-55/1,2,3;
 4//1;
 5/5=2,38=5/2;
 6/7=2,8=2,9=2,10=2,28=1/1;
 7//1,2,3,16;
 1/14=-1,18=20,19=15,26=3/3(2);
 2/9=110/2;
 99//99;
 2/9=110/2;
 3/5=5,11=2,16=1,25=1,30=1,71=1,74=-55/1,2,3;
 4/5=5,16=3,69=1/1;
 5/5=2,38=5/2;
 7//1,2,3,16;
 1/14=-1,18=20,19=15,26=3/3(-5);
 2/9=110/2;
 6/7=2,8=2,9=2,10=2,19=2,28=1/1;
 99/9=1/99;
 ------------------
 Ethene M062X 3-21G
 ------------------
 Symbolic Z-matrix:
 Charge =  0 Multiplicity = 1
 C                    -4.78007   3.43964   0. 
 C                    -3.44955   3.43964   0. 
 H                    -5.32543   3.39863   0.93736 
 H                    -5.32543   3.48066  -0.93736 
 H                    -2.9042    3.39863   0.93736 
 H                    -2.9042    3.48066  -0.93736 
 

 GradGradGradGradGradGradGradGradGradGradGradGradGradGradGradGradGradGrad
 Berny optimization.
 Initialization pass.
                           ----------------------------
                           !    Initial Parameters    !
                           ! (Angstroms and Degrees)  !
 --------------------------                            --------------------------
 ! Name  Definition              Value          Derivative Info.                !
 --------------------------------------------------------------------------------
 ! R1    R(1,2)                  1.3305         estimate D2E/DX2                !
 ! R2    R(1,3)                  1.0852         estimate D2E/DX2                !
 ! R3    R(1,4)                  1.0852         estimate D2E/DX2                !
 ! R4    R(2,5)                  1.0852         estimate D2E/DX2                !
 ! R5    R(2,6)                  1.0852         estimate D2E/DX2                !
 ! A1    A(2,1,3)              120.1672         estimate D2E/DX2                !
 ! A2    A(2,1,4)              120.1672         estimate D2E/DX2                !
 ! A3    A(3,1,4)              119.6656         estimate D2E/DX2                !
 ! A4    A(1,2,5)              120.1668         estimate D2E/DX2                !
 ! A5    A(1,2,6)              120.1668         estimate D2E/DX2                !
 ! A6    A(5,2,6)              119.6665         estimate D2E/DX2                !
 ! D1    D(3,1,2,5)              0.0            estimate D2E/DX2                !
 ! D2    D(3,1,2,6)           -179.9994         estimate D2E/DX2                !
 ! D3    D(4,1,2,5)            179.9994         estimate D2E/DX2                !
 ! D4    D(4,1,2,6)              0.0            estimate D2E/DX2                !
 --------------------------------------------------------------------------------
 Trust Radius=3.00D-01 FncErr=1.00D-07 GrdErr=1.00D-06
 Number of steps in this run=     25 maximum allowed number of steps=    100.
 GradGradGradGradGradGradGradGradGradGradGradGradGradGradGradGradGradGrad

                          Input orientation:                          
 ---------------------------------------------------------------------
 Center     Atomic      Atomic             Coordinates (Angstroms)
 Number     Number       Type             X           Y           Z
 ---------------------------------------------------------------------
      1          6           0       -4.780070    3.439640    0.000000
      2          6           0       -3.449550    3.439640    0.000000
      3          1           0       -5.325430    3.398630    0.937360
      4          1           0       -5.325430    3.480660   -0.937360
      5          1           0       -2.904200    3.398630    0.937360
      6          1           0       -2.904200    3.480660   -0.937360
 ---------------------------------------------------------------------
                    Distance matrix (angstroms):
                    1          2          3          4          5
     1  C    0.000000
     2  C    1.330520   0.000000
     3  H    1.085239   2.097439   0.000000
     4  H    1.085239   2.097439   1.876514   0.000000
     5  H    2.097430   1.085234   2.421230   3.063276   0.000000
     6  H    2.097430   1.085234   3.063276   2.421230   1.876514
                    6
     6  H    0.000000
 Stoichiometry    C2H4
 Framework group  CS[SG(C2),X(H4)]
 Deg. of freedom     7
 Full point group                 CS      NOp   2
 Largest Abelian subgroup         CS      NOp   2
 Largest concise Abelian subgroup CS      NOp   2
                         Standard orientation:                         
 ---------------------------------------------------------------------
 Center     Atomic      Atomic             Coordinates (Angstroms)
 Number     Number       Type             X           Y           Z
 ---------------------------------------------------------------------
      1          6           0       -0.000001   -0.665259    0.000000
      2          6           0       -0.000001    0.665261    0.000000
      3          1           0        0.000004   -1.210619   -0.938257
      4          1           0        0.000004   -1.210619    0.938257
      5          1           0        0.000004    1.210611   -0.938257
      6          1           0        0.000004    1.210611    0.938257
 ---------------------------------------------------------------------
 Rotational constants (GHZ):    142.4061301     30.5735744     25.1697991
 Standard basis: 3-21G (6D, 7F)
 There are    18 symmetry adapted cartesian basis functions of A'  symmetry.
 There are     8 symmetry adapted cartesian basis functions of A"  symmetry.
 There are    18 symmetry adapted basis functions of A'  symmetry.
 There are     8 symmetry adapted basis functions of A"  symmetry.
    26 basis functions,    42 primitive gaussians,    26 cartesian basis functions
     8 alpha electrons        8 beta electrons
       nuclear repulsion energy        33.4224979465 Hartrees.
 NAtoms=    6 NActive=    6 NUniq=    4 SFac= 2.25D+00 NAtFMM=   60 NAOKFM=F Big=F
 Integral buffers will be    131072 words long.
 Raffenetti 2 integral format.
 Two-electron integral symmetry is turned on.
 One-electron integrals computed using PRISM.
 NBasis=    26 RedAO= T EigKep=  2.22D-02  NBF=    18     8
 NBsUse=    26 1.00D-06 EigRej= -1.00D+00 NBFU=    18     8
 ExpMin= 1.83D-01 ExpMax= 1.72D+02 ExpMxC= 1.72D+02 IAcc=1 IRadAn=         1 AccDes= 0.00D+00
 Harris functional with IExCor= 1009 and IRadAn=       1 diagonalized for initial guess.
 HarFok:  IExCor= 1009 AccDes= 0.00D+00 IRadAn=         1 IDoV= 1 UseB2=F ITyADJ=14
 ICtDFT=  3500011 ScaDFX=  1.000000  1.000000  1.000000  1.000000
 FoFCou: FMM=F IPFlag=           0 FMFlag=      100000 FMFlg1=           0
         NFxFlg=           0 DoJE=T BraDBF=F KetDBF=T FulRan=T
         wScrn=  0.000000 ICntrl=     500 IOpCl=  0 I1Cent=   200000004 NGrid=           0
         NMat0=    1 NMatS0=      1 NMatT0=    0 NMatD0=    1 NMtDS0=    0 NMtDT0=    0
 Petite list used in FoFCou.
 Initial guess orbital symmetries:
       Occupied  (A') (A') (A') (A') (A") (A') (A") (A')
       Virtual   (A') (A') (A") (A') (A") (A') (A') (A') (A") (A')
                 (A') (A') (A") (A") (A') (A') (A") (A')
 The electronic state of the initial guess is 1-A'.
 Keep R1 ints in memory in symmetry-blocked form, NReq=944358.
 Requested convergence on RMS density matrix=1.00D-08 within 128 cycles.
 Requested convergence on MAX density matrix=1.00D-06.
 Requested convergence on             energy=1.00D-06.
 No special actions if energy rises.
 Integral accuracy reduced to 1.0D-05 until final iterations.
 Initial convergence to 1.0D-05 achieved.  Increase integral accuracy.
 SCF Done:  E(RM062X) =  -78.1094974960     A.U. after   12 cycles
            NFock= 12  Conv=0.21D-08     -V/T= 2.0091

 **********************************************************************

            Population analysis using the SCF density.

 **********************************************************************

 Orbital symmetries:
       Occupied  (A') (A') (A') (A') (A") (A') (A") (A')
       Virtual   (A') (A') (A") (A') (A") (A') (A') (A") (A') (A')
                 (A') (A') (A") (A") (A') (A') (A") (A')
 The electronic state is 1-A'.
 Alpha  occ. eigenvalues --  -10.48442 -10.48367  -0.85644  -0.65105  -0.54408
 Alpha  occ. eigenvalues --   -0.47662  -0.41490  -0.32723
 Alpha virt. eigenvalues --    0.06952   0.18836   0.20784   0.23431   0.32999
 Alpha virt. eigenvalues --    0.40748   0.71143   0.77175   0.79183   0.86616
 Alpha virt. eigenvalues --    0.89578   0.92391   1.09723   1.13662   1.16352
 Alpha virt. eigenvalues --    1.43590   1.45554   1.72588
          Condensed to atoms (all electrons):
               1          2          3          4          5          6
     1  C    5.178726   0.543332   0.388651   0.388651  -0.049400  -0.049400
     2  C    0.543332   5.178726  -0.049399  -0.049399   0.388652   0.388652
     3  H    0.388651  -0.049399   0.484887  -0.023055  -0.004279   0.002915
     4  H    0.388651  -0.049399  -0.023055   0.484887   0.002915  -0.004279
     5  H   -0.049400   0.388652  -0.004279   0.002915   0.484885  -0.023054
     6  H   -0.049400   0.388652   0.002915  -0.004279  -0.023054   0.484885
 Mulliken charges:
               1
     1  C   -0.400560
     2  C   -0.400563
     3  H    0.200280
     4  H    0.200280
     5  H    0.200282
     6  H    0.200282
 Sum of Mulliken charges =   0.00000
 Mulliken charges with hydrogens summed into heavy atoms:
               1
     1  C    0.000000
     2  C    0.000000
 Electronic spatial extent (au):  <R**2>=             81.9333
 Charge=              0.0000 electrons
 Dipole moment (field-independent basis, Debye):
    X=              0.0000    Y=              0.0000    Z=              0.0000  Tot=              0.0000
 Quadrupole moment (field-independent basis, Debye-Ang):
   XX=            -15.4350   YY=            -12.2047   ZZ=            -11.9827
   XY=              0.0000   XZ=              0.0000   YZ=              0.0000
 Traceless Quadrupole moment (field-independent basis, Debye-Ang):
   XX=             -2.2276   YY=              1.0027   ZZ=              1.2248
   XY=              0.0000   XZ=              0.0000   YZ=              0.0000
 Octapole moment (field-independent basis, Debye-Ang**2):
  XXX=              0.0000  YYY=              0.0000  ZZZ=              0.0000  XYY=              0.0000
  XXY=              0.0000  XXZ=              0.0000  XZZ=              0.0000  YZZ=              0.0000
  YYZ=              0.0000  XYZ=              0.0000
 Hexadecapole moment (field-independent basis, Debye-Ang**3):
 XXXX=            -15.8873 YYYY=            -65.0304 ZZZZ=            -24.9933 XXXY=              0.0000
 XXXZ=              0.0000 YYYX=              0.0000 YYYZ=              0.0000 ZZZX=              0.0000
 ZZZY=              0.0000 XXYY=            -14.4812 XXZZ=             -7.5078 YYZZ=            -12.2609
 XXYZ=              0.0000 YYXZ=              0.0000 ZZXY=              0.0000
 N-N= 3.342249794653D+01 E-N=-2.471718346822D+02  KE= 7.740885492012D+01
 Symmetry A'   KE= 7.347713078105D+01
 Symmetry A"   KE= 3.931724139064D+00
 Calling FoFJK, ICntrl=      2127 FMM=F ISym2X=1 I1Cent= 0 IOpClX= 0 NMat=1 NMatS=1 NMatT=0.
 ***** Axes restored to original set *****
 -------------------------------------------------------------------
 Center     Atomic                   Forces (Hartrees/Bohr)
 Number     Number              X              Y              Z
 -------------------------------------------------------------------
      1        6           0.006950529    0.000000623    0.000000027
      2        6          -0.006955983    0.000000623    0.000000027
      3        1          -0.003973767    0.000143062   -0.003276690
      4        1          -0.003973767   -0.000143685    0.003276662
      5        1           0.003976494    0.000142963   -0.003274410
      6        1           0.003976494   -0.000143586    0.003274383
 -------------------------------------------------------------------
 Cartesian Forces:  Max     0.006955983 RMS     0.003357421

 GradGradGradGradGradGradGradGradGradGradGradGradGradGradGradGradGradGrad
 Berny optimization.
 FormGI is forming the generalized inverse of G from B-inverse, IUseBI=4.
 Internal  Forces:  Max     0.006952142 RMS     0.003149177
 Search for a local minimum.
 Step number   1 out of a maximum of   25
 All quantities printed in internal units (Hartrees-Bohrs-Radians)
 Mixed Optimization -- RFO/linear search
 Second derivative matrix not updated -- first step.
 The second derivative matrix:
                          R1        R2        R3        R4        R5
           R1           0.59383
           R2           0.00000   0.35369
           R3           0.00000   0.00000   0.35369
           R4           0.00000   0.00000   0.00000   0.35369
           R5           0.00000   0.00000   0.00000   0.00000   0.35369
           A1           0.00000   0.00000   0.00000   0.00000   0.00000
           A2           0.00000   0.00000   0.00000   0.00000   0.00000
           A3           0.00000   0.00000   0.00000   0.00000   0.00000
           A4           0.00000   0.00000   0.00000   0.00000   0.00000
           A5           0.00000   0.00000   0.00000   0.00000   0.00000
           A6           0.00000   0.00000   0.00000   0.00000   0.00000
           D1           0.00000   0.00000   0.00000   0.00000   0.00000
           D2           0.00000   0.00000   0.00000   0.00000   0.00000
           D3           0.00000   0.00000   0.00000   0.00000   0.00000
           D4           0.00000   0.00000   0.00000   0.00000   0.00000
                          A1        A2        A3        A4        A5
           A1           0.16000
           A2           0.00000   0.16000
           A3           0.00000   0.00000   0.16000
           A4           0.00000   0.00000   0.00000   0.16000
           A5           0.00000   0.00000   0.00000   0.00000   0.16000
           A6           0.00000   0.00000   0.00000   0.00000   0.00000
           D1           0.00000   0.00000   0.00000   0.00000   0.00000
           D2           0.00000   0.00000   0.00000   0.00000   0.00000
           D3           0.00000   0.00000   0.00000   0.00000   0.00000
           D4           0.00000   0.00000   0.00000   0.00000   0.00000
                          A6        D1        D2        D3        D4
           A6           0.16000
           D1           0.00000   0.03008
           D2           0.00000   0.00000   0.03008
           D3           0.00000   0.00000   0.00000   0.03008
           D4           0.00000   0.00000   0.00000   0.00000   0.03008
 ITU=  0
     Eigenvalues ---    0.03008   0.03008   0.03008   0.16000   0.16000
     Eigenvalues ---    0.16000   0.16000   0.35369   0.35369   0.35369
     Eigenvalues ---    0.35369   0.59383
 RFO step:  Lambda=-9.10468160D-04 EMin= 3.00784293D-02
 Linear search not attempted -- first point.
 Iteration  1 RMS(Cart)=  0.02326462 RMS(Int)=  0.00024787
 Iteration  2 RMS(Cart)=  0.00024791 RMS(Int)=  0.00000000
 Iteration  3 RMS(Cart)=  0.00000000 RMS(Int)=  0.00000000
 ClnCor:  largest displacement from symmetrization is 1.20D-09 for atom     6.
 Variable       Old X    -DE/DX   Delta X   Delta X   Delta X     New X
                                 (Linear)    (Quad)   (Total)
    R1        2.51432   0.00100   0.00000   0.00168   0.00168   2.51599
    R2        2.05080  -0.00084   0.00000  -0.00237  -0.00237   2.04844
    R3        2.05080  -0.00084   0.00000  -0.00237  -0.00237   2.04844
    R4        2.05079  -0.00084   0.00000  -0.00236  -0.00236   2.04844
    R5        2.05079  -0.00084   0.00000  -0.00236  -0.00236   2.04844
    A1        2.09731   0.00348   0.00000   0.02160   0.02160   2.11891
    A2        2.09731   0.00348   0.00000   0.02160   0.02160   2.11891
    A3        2.08856  -0.00695   0.00000  -0.04319  -0.04319   2.04536
    A4        2.09731   0.00348   0.00000   0.02160   0.02160   2.11891
    A5        2.09731   0.00348   0.00000   0.02160   0.02160   2.11891
    A6        2.08857  -0.00695   0.00000  -0.04321  -0.04321   2.04537
    D1        0.00000   0.00000   0.00000   0.00000   0.00000   0.00000
    D2       -3.14158   0.00000   0.00000  -0.00002  -0.00002   3.14158
    D3        3.14158   0.00000   0.00000   0.00002   0.00002  -3.14158
    D4        0.00000   0.00000   0.00000   0.00000   0.00000   0.00000
         Item               Value     Threshold  Converged?
 Maximum Force            0.006952     0.000450     NO 
 RMS     Force            0.003149     0.000300     NO 
 Maximum Displacement     0.037665     0.001800     NO 
 RMS     Displacement     0.023257     0.001200     NO 
 Predicted change in Energy=-4.577942D-04
 GradGradGradGradGradGradGradGradGradGradGradGradGradGradGradGradGradGrad

                          Input orientation:                          
 ---------------------------------------------------------------------
 Center     Atomic      Atomic             Coordinates (Angstroms)
 Number     Number       Type             X           Y           Z
 ---------------------------------------------------------------------
      1          6           0       -4.780516    3.439646    0.000000
      2          6           0       -3.449109    3.439646    0.000000
      3          1           0       -5.345359    3.399198    0.924308
      4          1           0       -5.345359    3.480086   -0.924308
      5          1           0       -2.884269    3.399198    0.924309
      6          1           0       -2.884269    3.480086   -0.924309
 ---------------------------------------------------------------------
                    Distance matrix (angstroms):
                    1          2          3          4          5
     1  C    0.000000
     2  C    1.331407   0.000000
     3  H    1.083987   2.109916   0.000000
     4  H    1.083987   2.109916   1.850384   0.000000
     5  H    2.109914   1.083987   2.461090   3.079106   0.000000
     6  H    2.109914   1.083987   3.079106   2.461090   1.850388
                    6
     6  H    0.000000
 Stoichiometry    C2H4
 Framework group  CS[SG(C2),X(H4)]
 Deg. of freedom     7
 Full point group                 CS      NOp   2
 Largest Abelian subgroup         CS      NOp   2
 Largest concise Abelian subgroup CS      NOp   2
                         Standard orientation:                         
 ---------------------------------------------------------------------
 Center     Atomic      Atomic             Coordinates (Angstroms)
 Number     Number       Type             X           Y           Z
 ---------------------------------------------------------------------
      1          6           0        0.000001   -0.665703    0.000000
      2          6           0        0.000001    0.665704    0.000000
      3          1           0       -0.000003   -1.230546   -0.925192
      4          1           0       -0.000003   -1.230546    0.925192
      5          1           0       -0.000003    1.230544   -0.925194
      6          1           0       -0.000003    1.230544    0.925194
 ---------------------------------------------------------------------
 Rotational constants (GHZ):    146.4560822     30.1894876     25.0299743
 Standard basis: 3-21G (6D, 7F)
 There are    18 symmetry adapted cartesian basis functions of A'  symmetry.
 There are     8 symmetry adapted cartesian basis functions of A"  symmetry.
 There are    18 symmetry adapted basis functions of A'  symmetry.
 There are     8 symmetry adapted basis functions of A"  symmetry.
    26 basis functions,    42 primitive gaussians,    26 cartesian basis functions
     8 alpha electrons        8 beta electrons
       nuclear repulsion energy        33.3897350270 Hartrees.
 NAtoms=    6 NActive=    6 NUniq=    4 SFac= 2.25D+00 NAtFMM=   60 NAOKFM=F Big=F
 Integral buffers will be    131072 words long.
 Raffenetti 2 integral format.
 Two-electron integral symmetry is turned on.
 One-electron integrals computed using PRISM.
 NBasis=    26 RedAO= T EigKep=  2.26D-02  NBF=    18     8
 NBsUse=    26 1.00D-06 EigRej= -1.00D+00 NBFU=    18     8
 Initial guess from the checkpoint file:  "/scr/Gau-26775.chk"
 B after Tr=     0.000000    0.000000    0.000000
         Rot=    1.000000    0.000000    0.000000    0.000000 Ang=   0.00 deg.
 Initial guess orbital symmetries:
       Occupied  (A') (A') (A') (A') (A") (A') (A") (A')
       Virtual   (A') (A') (A') (A') (A') (A') (A') (A') (A') (A')
                 (A') (A') (A") (A") (A") (A") (A") (A")
 ExpMin= 1.83D-01 ExpMax= 1.72D+02 ExpMxC= 1.72D+02 IAcc=1 IRadAn=         1 AccDes= 0.00D+00
 Harris functional with IExCor= 1009 and IRadAn=       1 diagonalized for initial guess.
 HarFok:  IExCor= 1009 AccDes= 0.00D+00 IRadAn=         1 IDoV= 1 UseB2=F ITyADJ=14
 ICtDFT=  3500011 ScaDFX=  1.000000  1.000000  1.000000  1.000000
 FoFCou: FMM=F IPFlag=           0 FMFlag=      100000 FMFlg1=           0
         NFxFlg=           0 DoJE=T BraDBF=F KetDBF=T FulRan=T
         wScrn=  0.000000 ICntrl=     500 IOpCl=  0 I1Cent=   200000004 NGrid=           0
         NMat0=    1 NMatS0=      1 NMatT0=    0 NMatD0=    1 NMtDS0=    0 NMtDT0=    0
 Petite list used in FoFCou.
 Keep R1 ints in memory in symmetry-blocked form, NReq=944358.
 Requested convergence on RMS density matrix=1.00D-08 within 128 cycles.
 Requested convergence on MAX density matrix=1.00D-06.
 Requested convergence on             energy=1.00D-06.
 No special actions if energy rises.
 Integral accuracy reduced to 1.0D-05 until final iterations.
 Initial convergence to 1.0D-05 achieved.  Increase integral accuracy.
 SCF Done:  E(RM062X) =  -78.1100597166     A.U. after   11 cycles
            NFock= 11  Conv=0.23D-08     -V/T= 2.0091
 Calling FoFJK, ICntrl=      2127 FMM=F ISym2X=1 I1Cent= 0 IOpClX= 0 NMat=1 NMatS=1 NMatT=0.
 ***** Axes restored to original set *****
 -------------------------------------------------------------------
 Center     Atomic                   Forces (Hartrees/Bohr)
 Number     Number              X              Y              Z
 -------------------------------------------------------------------
      1        6           0.005957793   -0.000000492   -0.000000022
      2        6          -0.005958595   -0.000000492   -0.000000022
      3        1          -0.001273989    0.000013602   -0.000305220
      4        1          -0.001273989   -0.000013110    0.000305242
      5        1           0.001274390    0.000013613   -0.000305490
      6        1           0.001274390   -0.000013121    0.000305512
 -------------------------------------------------------------------
 Cartesian Forces:  Max     0.005958595 RMS     0.002079905

 GradGradGradGradGradGradGradGradGradGradGradGradGradGradGradGradGradGrad
 Berny optimization.
 Using GEDIIS/GDIIS optimizer.
 FormGI is forming the generalized inverse of G from B-inverse, IUseBI=4.
 Internal  Forces:  Max     0.003409815 RMS     0.001182481
 Search for a local minimum.
 Step number   2 out of a maximum of   25
 All quantities printed in internal units (Hartrees-Bohrs-Radians)
 Mixed Optimization -- RFO/linear search
 Update second derivatives using D2CorX and points    1    2
 DE= -5.62D-04 DEPred=-4.58D-04 R= 1.23D+00
 TightC=F SS=  1.41D+00  RLast= 7.50D-02 DXNew= 5.0454D-01 2.2498D-01
 Trust test= 1.23D+00 RLast= 7.50D-02 DXMaxT set to 3.00D-01
 The second derivative matrix:
                          R1        R2        R3        R4        R5
           R1           0.62051
           R2          -0.00691   0.35512
           R3          -0.00691   0.00143   0.35512
           R4          -0.00689   0.00143   0.00143   0.35512
           R5          -0.00689   0.00143   0.00143   0.00143   0.35512
           A1           0.01274  -0.00147  -0.00147  -0.00147  -0.00147
           A2           0.01274  -0.00147  -0.00147  -0.00147  -0.00147
           A3          -0.02547   0.00293   0.00293   0.00293   0.00293
           A4           0.01274  -0.00147  -0.00147  -0.00147  -0.00147
           A5           0.01274  -0.00147  -0.00147  -0.00147  -0.00147
           A6          -0.02548   0.00293   0.00293   0.00293   0.00293
           D1           0.00000   0.00000   0.00000   0.00000   0.00000
           D2          -0.00001   0.00000   0.00000   0.00000   0.00000
           D3           0.00001   0.00000   0.00000   0.00000   0.00000
           D4           0.00000   0.00000   0.00000   0.00000   0.00000
                          A1        A2        A3        A4        A5
           A1           0.15666
           A2          -0.00334   0.15666
           A3           0.00669   0.00669   0.14663
           A4          -0.00334  -0.00334   0.00669   0.15665
           A5          -0.00334  -0.00334   0.00669  -0.00335   0.15665
           A6           0.00669   0.00669  -0.01338   0.00669   0.00669
           D1           0.00000   0.00000   0.00000   0.00000   0.00000
           D2           0.00000   0.00000   0.00000   0.00000   0.00000
           D3           0.00000   0.00000   0.00000   0.00000   0.00000
           D4           0.00000   0.00000   0.00000   0.00000   0.00000
                          A6        D1        D2        D3        D4
           A6           0.14662
           D1           0.00000   0.03008
           D2           0.00000   0.00000   0.03008
           D3           0.00000   0.00000   0.00000   0.03008
           D4           0.00000   0.00000   0.00000   0.00000   0.03008
 ITU=  1  0
 Use linear search instead of GDIIS.
     Eigenvalues ---    0.03008   0.03008   0.03008   0.11568   0.16000
     Eigenvalues ---    0.16000   0.16000   0.35369   0.35369   0.35369
     Eigenvalues ---    0.35893   0.62517
 RFO step:  Lambda=-4.45433968D-05 EMin= 3.00784293D-02
 Quartic linear search produced a step of  0.29723.
 Iteration  1 RMS(Cart)=  0.00681646 RMS(Int)=  0.00003290
 Iteration  2 RMS(Cart)=  0.00003304 RMS(Int)=  0.00000000
 Iteration  3 RMS(Cart)=  0.00000000 RMS(Int)=  0.00000000
 ClnCor:  largest displacement from symmetrization is 1.84D-09 for atom     6.
 Variable       Old X    -DE/DX   Delta X   Delta X   Delta X     New X
                                 (Linear)    (Quad)   (Total)
    R1        2.51599  -0.00341   0.00050  -0.00787  -0.00737   2.50863
    R2        2.04844   0.00040  -0.00070   0.00207   0.00137   2.04981
    R3        2.04844   0.00040  -0.00070   0.00207   0.00137   2.04981
    R4        2.04844   0.00040  -0.00070   0.00207   0.00137   2.04981
    R5        2.04844   0.00040  -0.00070   0.00207   0.00137   2.04981
    A1        2.11891   0.00085   0.00642   0.00143   0.00785   2.12676
    A2        2.11891   0.00085   0.00642   0.00143   0.00785   2.12676
    A3        2.04536  -0.00170  -0.01284  -0.00285  -0.01569   2.02967
    A4        2.11891   0.00085   0.00642   0.00143   0.00785   2.12676
    A5        2.11891   0.00085   0.00642   0.00143   0.00785   2.12676
    A6        2.04537  -0.00170  -0.01284  -0.00285  -0.01570   2.02967
    D1        0.00000   0.00000   0.00000   0.00000   0.00000   0.00000
    D2        3.14158   0.00000  -0.00001   0.00002   0.00002  -3.14158
    D3       -3.14158   0.00000   0.00001  -0.00002  -0.00002   3.14158
    D4        0.00000   0.00000   0.00000   0.00000   0.00000   0.00000
         Item               Value     Threshold  Converged?
 Maximum Force            0.003410     0.000450     NO 
 RMS     Force            0.001182     0.000300     NO 
 Maximum Displacement     0.010724     0.001800     NO 
 RMS     Displacement     0.006823     0.001200     NO 
 Predicted change in Energy=-5.433564D-05
 GradGradGradGradGradGradGradGradGradGradGradGradGradGradGradGradGradGrad

                          Input orientation:                          
 ---------------------------------------------------------------------
 Center     Atomic      Atomic             Coordinates (Angstroms)
 Number     Number       Type             X           Y           Z
 ---------------------------------------------------------------------
      1          6           0       -4.778567    3.439640    0.000000
      2          6           0       -3.451059    3.439640    0.000000
      3          1           0       -5.351033    3.399369    0.920467
      4          1           0       -5.351033    3.479921   -0.920466
      5          1           0       -2.878594    3.399369    0.920467
      6          1           0       -2.878594    3.479921   -0.920467
 ---------------------------------------------------------------------
                    Distance matrix (angstroms):
                    1          2          3          4          5
     1  C    0.000000
     2  C    1.327508   0.000000
     3  H    1.084711   2.111583   0.000000
     4  H    1.084711   2.111583   1.842695   0.000000
     5  H    2.111583   1.084711   2.472440   3.083582   0.000000
     6  H    2.111583   1.084711   3.083582   2.472440   1.842695
                    6
     6  H    0.000000
 Stoichiometry    C2H4
 Framework group  CS[SG(C2),X(H4)]
 Deg. of freedom     7
 Full point group                 CS      NOp   2
 Largest Abelian subgroup         CS      NOp   2
 Largest concise Abelian subgroup CS      NOp   2
                         Standard orientation:                         
 ---------------------------------------------------------------------
 Center     Atomic      Atomic             Coordinates (Angstroms)
 Number     Number       Type             X           Y           Z
 ---------------------------------------------------------------------
      1          6           0       -0.000001   -0.663754    0.000000
      2          6           0       -0.000001    0.663754    0.000000
      3          1           0        0.000004   -1.236220   -0.921347
      4          1           0        0.000004   -1.236220    0.921347
      5          1           0        0.000004    1.236220   -0.921347
      6          1           0        0.000004    1.236220    0.921347
 ---------------------------------------------------------------------
 Rotational constants (GHZ):    147.6812178     30.1999061     25.0726936
 Standard basis: 3-21G (6D, 7F)
 There are    18 symmetry adapted cartesian basis functions of A'  symmetry.
 There are     8 symmetry adapted cartesian basis functions of A"  symmetry.
 There are    18 symmetry adapted basis functions of A'  symmetry.
 There are     8 symmetry adapted basis functions of A"  symmetry.
    26 basis functions,    42 primitive gaussians,    26 cartesian basis functions
     8 alpha electrons        8 beta electrons
       nuclear repulsion energy        33.4191031129 Hartrees.
 NAtoms=    6 NActive=    6 NUniq=    4 SFac= 2.25D+00 NAtFMM=   60 NAOKFM=F Big=F
 Integral buffers will be    131072 words long.
 Raffenetti 2 integral format.
 Two-electron integral symmetry is turned on.
 One-electron integrals computed using PRISM.
 NBasis=    26 RedAO= T EigKep=  2.24D-02  NBF=    18     8
 NBsUse=    26 1.00D-06 EigRej= -1.00D+00 NBFU=    18     8
 Initial guess from the checkpoint file:  "/scr/Gau-26775.chk"
 B after Tr=     0.000000    0.000000    0.000000
         Rot=    1.000000    0.000000    0.000000    0.000000 Ang=   0.00 deg.
 Initial guess orbital symmetries:
       Occupied  (A') (A') (A') (A') (A") (A') (A") (A')
       Virtual   (A') (A') (A') (A') (A') (A') (A') (A') (A') (A')
                 (A') (A') (A") (A") (A") (A") (A") (A")
 Keep R1 ints in memory in symmetry-blocked form, NReq=944358.
 Requested convergence on RMS density matrix=1.00D-08 within 128 cycles.
 Requested convergence on MAX density matrix=1.00D-06.
 Requested convergence on             energy=1.00D-06.
 No special actions if energy rises.
 SCF Done:  E(RM062X) =  -78.1101131631     A.U. after    6 cycles
            NFock=  6  Conv=0.55D-08     -V/T= 2.0090
 Calling FoFJK, ICntrl=      2127 FMM=F ISym2X=1 I1Cent= 0 IOpClX= 0 NMat=1 NMatS=1 NMatT=0.
 ***** Axes restored to original set *****
 -------------------------------------------------------------------
 Center     Atomic                   Forces (Hartrees/Bohr)
 Number     Number              X              Y              Z
 -------------------------------------------------------------------
      1        6          -0.000082968    0.000000625    0.000000027
      2        6           0.000082999    0.000000624    0.000000027
      3        1          -0.000063273   -0.000004697    0.000100185
      4        1          -0.000063273    0.000004072   -0.000100213
      5        1           0.000063257   -0.000004694    0.000100132
      6        1           0.000063257    0.000004070   -0.000100160
 -------------------------------------------------------------------
 Cartesian Forces:  Max     0.000100213 RMS     0.000062360

 GradGradGradGradGradGradGradGradGradGradGradGradGradGradGradGradGradGrad
 Berny optimization.
 Using GEDIIS/GDIIS optimizer.
 FormGI is forming the generalized inverse of G from B-inverse, IUseBI=4.
 Internal  Forces:  Max     0.000209513 RMS     0.000081700
 Search for a local minimum.
 Step number   3 out of a maximum of   25
 All quantities printed in internal units (Hartrees-Bohrs-Radians)
 Mixed Optimization -- En-DIIS/RFO-DIIS
 Update second derivatives using D2CorX and points    1    2    3
 DE= -5.34D-05 DEPred=-5.43D-05 R= 9.84D-01
 TightC=F SS=  1.41D+00  RLast= 2.83D-02 DXNew= 5.0454D-01 8.4884D-02
 Trust test= 9.84D-01 RLast= 2.83D-02 DXMaxT set to 3.00D-01
 The second derivative matrix:
                          R1        R2        R3        R4        R5
           R1           0.62894
           R2          -0.00426   0.35474
           R3          -0.00426   0.00105   0.35474
           R4          -0.00424   0.00105   0.00105   0.35474
           R5          -0.00424   0.00105   0.00105   0.00104   0.35474
           A1           0.01102  -0.00251  -0.00251  -0.00251  -0.00251
           A2           0.01102  -0.00251  -0.00251  -0.00251  -0.00251
           A3          -0.02205   0.00502   0.00502   0.00502   0.00502
           A4           0.01103  -0.00251  -0.00251  -0.00251  -0.00251
           A5           0.01103  -0.00251  -0.00251  -0.00251  -0.00251
           A6          -0.02205   0.00502   0.00502   0.00502   0.00502
           D1           0.00000   0.00000   0.00000   0.00000   0.00000
           D2          -0.00002   0.00000   0.00000   0.00000   0.00000
           D3           0.00002   0.00000   0.00000   0.00000   0.00000
           D4           0.00000   0.00000   0.00000   0.00000   0.00000
                          A1        A2        A3        A4        A5
           A1           0.15671
           A2          -0.00329   0.15671
           A3           0.00658   0.00658   0.14685
           A4          -0.00329  -0.00329   0.00658   0.15671
           A5          -0.00329  -0.00329   0.00658  -0.00329   0.15671
           A6           0.00658   0.00658  -0.01316   0.00658   0.00658
           D1           0.00000   0.00000   0.00000   0.00000   0.00000
           D2           0.00000   0.00000  -0.00001   0.00000   0.00000
           D3           0.00000   0.00000   0.00001   0.00000   0.00000
           D4           0.00000   0.00000   0.00000   0.00000   0.00000
                          A6        D1        D2        D3        D4
           A6           0.14684
           D1           0.00000   0.03008
           D2          -0.00001   0.00000   0.03008
           D3           0.00001   0.00000   0.00000   0.03008
           D4           0.00000   0.00000   0.00000   0.00000   0.03008
 ITU=  1  1  0
 Use linear search instead of GDIIS.
     Eigenvalues ---    0.03008   0.03008   0.03008   0.11652   0.16000
     Eigenvalues ---    0.16000   0.16000   0.35369   0.35369   0.35369
     Eigenvalues ---    0.35869   0.63214
 RFO step:  Lambda=-2.24269493D-07 EMin= 3.00784293D-02
 Quartic linear search produced a step of -0.00772.
 Iteration  1 RMS(Cart)=  0.00024113 RMS(Int)=  0.00000001
 Iteration  2 RMS(Cart)=  0.00000000 RMS(Int)=  0.00000000
 ClnCor:  largest displacement from symmetrization is 1.30D-08 for atom     6.
 Variable       Old X    -DE/DX   Delta X   Delta X   Delta X     New X
                                 (Linear)    (Quad)   (Total)
    R1        2.50863   0.00021   0.00006   0.00028   0.00034   2.50897
    R2        2.04981   0.00012  -0.00001   0.00035   0.00034   2.05014
    R3        2.04981   0.00012  -0.00001   0.00035   0.00034   2.05014
    R4        2.04981   0.00012  -0.00001   0.00035   0.00034   2.05014
    R5        2.04981   0.00012  -0.00001   0.00035   0.00034   2.05014
    A1        2.12676   0.00000  -0.00006   0.00006   0.00000   2.12676
    A2        2.12676   0.00000  -0.00006   0.00006   0.00000   2.12676
    A3        2.02967   0.00000   0.00012  -0.00012   0.00000   2.02967
    A4        2.12676   0.00000  -0.00006   0.00006   0.00000   2.12676
    A5        2.12676   0.00000  -0.00006   0.00006   0.00000   2.12676
    A6        2.02967   0.00000   0.00012  -0.00012   0.00000   2.02967
    D1        0.00000   0.00000   0.00000   0.00000   0.00000   0.00000
    D2       -3.14158   0.00000   0.00000  -0.00002  -0.00002   3.14158
    D3        3.14158   0.00000   0.00000   0.00002   0.00002  -3.14158
    D4        0.00000   0.00000   0.00000   0.00000   0.00000   0.00000
         Item               Value     Threshold  Converged?
 Maximum Force            0.000210     0.000450     YES
 RMS     Force            0.000082     0.000300     YES
 Maximum Displacement     0.000351     0.001800     YES
 RMS     Displacement     0.000241     0.001200     YES
 Predicted change in Energy=-1.153694D-07
 Optimization completed.
    -- Stationary point found.
                           ----------------------------
                           !   Optimized Parameters   !
                           ! (Angstroms and Degrees)  !
 --------------------------                            --------------------------
 ! Name  Definition              Value          Derivative Info.                !
 --------------------------------------------------------------------------------
 ! R1    R(1,2)                  1.3275         -DE/DX =    0.0002              !
 ! R2    R(1,3)                  1.0847         -DE/DX =    0.0001              !
 ! R3    R(1,4)                  1.0847         -DE/DX =    0.0001              !
 ! R4    R(2,5)                  1.0847         -DE/DX =    0.0001              !
 ! R5    R(2,6)                  1.0847         -DE/DX =    0.0001              !
 ! A1    A(2,1,3)              121.8542         -DE/DX =    0.0                 !
 ! A2    A(2,1,4)              121.8542         -DE/DX =    0.0                 !
 ! A3    A(3,1,4)              116.2917         -DE/DX =    0.0                 !
 ! A4    A(1,2,5)              121.8541         -DE/DX =    0.0                 !
 ! A5    A(1,2,6)              121.8541         -DE/DX =    0.0                 !
 ! A6    A(5,2,6)              116.2917         -DE/DX =    0.0                 !
 ! D1    D(3,1,2,5)              0.0            -DE/DX =    0.0                 !
 ! D2    D(3,1,2,6)            180.0006         -DE/DX =    0.0                 !
 ! D3    D(4,1,2,5)           -180.0006         -DE/DX =    0.0                 !
 ! D4    D(4,1,2,6)              0.0            -DE/DX =    0.0                 !
 --------------------------------------------------------------------------------
 GradGradGradGradGradGradGradGradGradGradGradGradGradGradGradGradGradGrad

                          Input orientation:                          
 ---------------------------------------------------------------------
 Center     Atomic      Atomic             Coordinates (Angstroms)
 Number     Number       Type             X           Y           Z
 ---------------------------------------------------------------------
      1          6           0       -4.778567    3.439640    0.000000
      2          6           0       -3.451059    3.439640    0.000000
      3          1           0       -5.351033    3.399369    0.920467
      4          1           0       -5.351033    3.479921   -0.920466
      5          1           0       -2.878594    3.399369    0.920467
      6          1           0       -2.878594    3.479921   -0.920467
 ---------------------------------------------------------------------
                    Distance matrix (angstroms):
                    1          2          3          4          5
     1  C    0.000000
     2  C    1.327508   0.000000
     3  H    1.084711   2.111583   0.000000
     4  H    1.084711   2.111583   1.842695   0.000000
     5  H    2.111583   1.084711   2.472440   3.083582   0.000000
     6  H    2.111583   1.084711   3.083582   2.472440   1.842695
                    6
     6  H    0.000000
 Stoichiometry    C2H4
 Framework group  CS[SG(C2),X(H4)]
 Deg. of freedom     7
 Full point group                 CS      NOp   2
 Largest Abelian subgroup         CS      NOp   2
 Largest concise Abelian subgroup CS      NOp   2
                         Standard orientation:                         
 ---------------------------------------------------------------------
 Center     Atomic      Atomic             Coordinates (Angstroms)
 Number     Number       Type             X           Y           Z
 ---------------------------------------------------------------------
      1          6           0       -0.000001   -0.663754    0.000000
      2          6           0       -0.000001    0.663754    0.000000
      3          1           0        0.000004   -1.236220   -0.921347
      4          1           0        0.000004   -1.236220    0.921347
      5          1           0        0.000004    1.236220   -0.921347
      6          1           0        0.000004    1.236220    0.921347
 ---------------------------------------------------------------------
 Rotational constants (GHZ):    147.6812178     30.1999061     25.0726936

 **********************************************************************

            Population analysis using the SCF density.

 **********************************************************************

 Orbital symmetries:
       Occupied  (A') (A') (A') (A') (A") (A') (A") (A')
       Virtual   (A') (A') (A") (A') (A") (A') (A') (A") (A') (A')
                 (A') (A') (A") (A") (A') (A") (A') (A')
 The electronic state is 1-A'.
 Alpha  occ. eigenvalues --  -10.48494 -10.48421  -0.85588  -0.65521  -0.53888
 Alpha  occ. eigenvalues --   -0.48452  -0.41117  -0.32803
 Alpha virt. eigenvalues --    0.06949   0.19414   0.20534   0.23249   0.33049
 Alpha virt. eigenvalues --    0.41354   0.71614   0.75765   0.79131   0.86583
 Alpha virt. eigenvalues --    0.89474   0.93221   1.09555   1.13817   1.16850
 Alpha virt. eigenvalues --    1.41858   1.43568   1.72027
          Condensed to atoms (all electrons):
               1          2          3          4          5          6
     1  C    5.164745   0.554777   0.387036   0.387036  -0.046727  -0.046727
     2  C    0.554777   5.164746  -0.046727  -0.046727   0.387036   0.387036
     3  H    0.387036  -0.046727   0.487537  -0.026522  -0.004194   0.002799
     4  H    0.387036  -0.046727  -0.026522   0.487537   0.002799  -0.004194
     5  H   -0.046727   0.387036  -0.004194   0.002799   0.487537  -0.026522
     6  H   -0.046727   0.387036   0.002799  -0.004194  -0.026522   0.487537
 Mulliken charges:
               1
     1  C   -0.400141
     2  C   -0.400141
     3  H    0.200071
     4  H    0.200071
     5  H    0.200071
     6  H    0.200071
 Sum of Mulliken charges =   0.00000
 Mulliken charges with hydrogens summed into heavy atoms:
               1
     1  C    0.000000
     2  C    0.000000
 Electronic spatial extent (au):  <R**2>=             82.2301
 Charge=              0.0000 electrons
 Dipole moment (field-independent basis, Debye):
    X=              0.0000    Y=              0.0000    Z=              0.0000  Tot=              0.0000
 Quadrupole moment (field-independent basis, Debye-Ang):
   XX=            -15.4162   YY=            -11.9553   ZZ=            -12.1659
   XY=              0.0000   XZ=              0.0000   YZ=              0.0000
 Traceless Quadrupole moment (field-independent basis, Debye-Ang):
   XX=             -2.2370   YY=              1.2238   ZZ=              1.0133
   XY=              0.0000   XZ=              0.0000   YZ=              0.0000
 Octapole moment (field-independent basis, Debye-Ang**2):
  XXX=              0.0000  YYY=              0.0000  ZZZ=              0.0000  XYY=              0.0000
  XXY=              0.0000  XXZ=              0.0000  XZZ=              0.0000  YZZ=              0.0000
  YYZ=              0.0000  XYZ=              0.0000
 Hexadecapole moment (field-independent basis, Debye-Ang**3):
 XXXX=            -15.8526 YYYY=            -64.9091 ZZZZ=            -24.9676 XXXY=              0.0000
 XXXZ=              0.0000 YYYX=              0.0000 YYYZ=              0.0000 ZZZX=              0.0000
 ZZZY=              0.0000 XXYY=            -14.5992 XXZZ=             -7.4360 YYZZ=            -12.3212
 XXYZ=              0.0000 YYXZ=              0.0000 ZZXY=              0.0000
 N-N= 3.341910311290D+01 E-N=-2.471605620296D+02  KE= 7.741243642113D+01
 Symmetry A'   KE= 7.347629504348D+01
 Symmetry A"   KE= 3.936141377653D+00
 1\1\GINC-N0288\FOpt\RM062X\3-21G\C2H4\GDAVIDS3\21-Feb-2017\0\\#n M062X
 /3-21G Opt\\Ethene M062X 3-21G\\0,1\C,-4.7785673334,3.4396401706,-0.00
 00000472\C,-3.4510593352,3.4396401721,-0.0000000472\H,-5.3510330895,3.
 3993690955,0.9204667412\H,-5.3510330895,3.4799207231,-0.9204664209\H,-
 2.8785935761,3.3993690888,0.9204668492\H,-2.8785935761,3.4799207259,-0
 .9204665291\\Version=ES64L-G09RevE.01\State=1-A'\HF=-78.1101132\RMSD=5
 .514e-09\RMSF=6.236e-05\Dipole=-0.0000003,0.0000059,0.0000003\Quadrupo
 le=0.9098501,-1.6585717,0.7487216,0.,0.,-0.1055353\PG=CS [SG(C2),X(H4)
 ]\\@


 THE ATTENTION SPAN OF A COMPUTER IS AS LONG
 AS ITS EXTENSION CORD.
 Job cpu time:       0 days  0 hours  0 minutes 28.8 seconds.
 File lengths (MBytes):  RWF=      5 Int=      0 D2E=      0 Chk=      1 Scr=      1
 Normal termination of Gaussian 09 at Tue Feb 21 18:25:58 2017.
