 Entering Gaussian System, Link 0=g09
 Input=Ethyne_CCSD_LANL2DZ.com
 Output=Ethyne_CCSD_LANL2DZ.log
 Initial command:
 /sw/contrib/gaussian/g09/E01/g09/l1.exe "/scr/Gau-16211.inp" -scrdir="/scr/"
 Entering Link 1 = /sw/contrib/gaussian/g09/E01/g09/l1.exe PID=     16212.
  
 Copyright (c) 1988,1990,1992,1993,1995,1998,2003,2009,2015,
            Gaussian, Inc.  All Rights Reserved.
  
 This is part of the Gaussian(R) 09 program.  It is based on
 the Gaussian(R) 03 system (copyright 2003, Gaussian, Inc.),
 the Gaussian(R) 98 system (copyright 1998, Gaussian, Inc.),
 the Gaussian(R) 94 system (copyright 1995, Gaussian, Inc.),
 the Gaussian 92(TM) system (copyright 1992, Gaussian, Inc.),
 the Gaussian 90(TM) system (copyright 1990, Gaussian, Inc.),
 the Gaussian 88(TM) system (copyright 1988, Gaussian, Inc.),
 the Gaussian 86(TM) system (copyright 1986, Carnegie Mellon
 University), and the Gaussian 82(TM) system (copyright 1983,
 Carnegie Mellon University). Gaussian is a federally registered
 trademark of Gaussian, Inc.
  
 This software contains proprietary and confidential information,
 including trade secrets, belonging to Gaussian, Inc.
  
 This software is provided under written license and may be
 used, copied, transmitted, or stored only in accord with that
 written license.
  
 The following legend is applicable only to US Government
 contracts under FAR:
  
                    RESTRICTED RIGHTS LEGEND
  
 Use, reproduction and disclosure by the US Government is
 subject to restrictions as set forth in subparagraphs (a)
 and (c) of the Commercial Computer Software - Restricted
 Rights clause in FAR 52.227-19.
  
 Gaussian, Inc.
 340 Quinnipiac St., Bldg. 40, Wallingford CT 06492
  
  
 ---------------------------------------------------------------
 Warning -- This program may not be used in any manner that
 competes with the business of Gaussian, Inc. or will provide
 assistance to any competitor of Gaussian, Inc.  The licensee
 of this program is prohibited from giving any competitor of
 Gaussian, Inc. access to this program.  By using this program,
 the user acknowledges that Gaussian, Inc. is engaged in the
 business of creating and licensing software in the field of
 computational chemistry and represents and warrants to the
 licensee that it is not a competitor of Gaussian, Inc. and that
 it will not use this program in any manner prohibited above.
 ---------------------------------------------------------------
  

 Cite this work as:
 Gaussian 09, Revision E.01,
 M. J. Frisch, G. W. Trucks, H. B. Schlegel, G. E. Scuseria, 
 M. A. Robb, J. R. Cheeseman, G. Scalmani, V. Barone, B. Mennucci, 
 G. A. Petersson, H. Nakatsuji, M. Caricato, X. Li, H. P. Hratchian, 
 A. F. Izmaylov, J. Bloino, G. Zheng, J. L. Sonnenberg, M. Hada, 
 M. Ehara, K. Toyota, R. Fukuda, J. Hasegawa, M. Ishida, T. Nakajima, 
 Y. Honda, O. Kitao, H. Nakai, T. Vreven, J. A. Montgomery, Jr., 
 J. E. Peralta, F. Ogliaro, M. Bearpark, J. J. Heyd, E. Brothers, 
 K. N. Kudin, V. N. Staroverov, T. Keith, R. Kobayashi, J. Normand, 
 K. Raghavachari, A. Rendell, J. C. Burant, S. S. Iyengar, J. Tomasi, 
 M. Cossi, N. Rega, J. M. Millam, M. Klene, J. E. Knox, J. B. Cross, 
 V. Bakken, C. Adamo, J. Jaramillo, R. Gomperts, R. E. Stratmann, 
 O. Yazyev, A. J. Austin, R. Cammi, C. Pomelli, J. W. Ochterski, 
 R. L. Martin, K. Morokuma, V. G. Zakrzewski, G. A. Voth, 
 P. Salvador, J. J. Dannenberg, S. Dapprich, A. D. Daniels, 
 O. Farkas, J. B. Foresman, J. V. Ortiz, J. Cioslowski, 
 and D. J. Fox, Gaussian, Inc., Wallingford CT, 2013.
 
 ******************************************
 Gaussian 09:  ES64L-G09RevE.01 30-Nov-2015
                21-Feb-2017 
 ******************************************
 %NProcShared=8
 Will use up to    8 processors via shared memory.
 -------------------
 #n CCSD/LANL2DZ Opt
 -------------------
 1/18=20,19=15,38=1/1,3;
 2/9=110,12=2,17=6,18=5,40=1/2;
 3/5=6,6=3,11=9,16=1,25=1,30=1,71=1/1,2,3;
 4//1;
 5/5=2,38=5/2;
 8/6=4,9=120000,10=1/1,4;
 9/5=7,15=1/13;
 11/28=-8,29=200,42=3/11;
 10/5=6/2;
 6/7=2,8=2,9=2,10=2/1;
 7/12=7/1,2,3,16;
 1/18=20,19=15/3(2);
 2/9=110/2;
 99//99;
 2/9=110/2;
 3/5=6,6=3,11=9,16=1,25=1,30=1,71=1/1,2,3;
 4/5=5,16=3,69=1/1;
 5/5=2,38=5/2;
 8/6=4,9=120000,10=1/1,4;
 9/5=7,15=1/13;
 11/28=-8,29=200,42=3/11;
 10/5=6/2;
 7/12=7/1,2,3,16;
 1/18=20,19=15/3(-9);
 2/9=110/2;
 6/7=2,8=2,9=2,10=2/1;
 99//99;
 -------------------
 Ethyne CCSD LANL2DZ
 -------------------
 Symbolic Z-matrix:
 Charge =  0 Multiplicity = 1
 C                    -8.44511   3.24911   0. 
 C                    -7.23998   3.27154   0. 
 H                    -9.50331   3.22942   0. 
 H                    -6.18178   3.29124   0. 
 

 GradGradGradGradGradGradGradGradGradGradGradGradGradGradGradGradGradGrad
 Berny optimization.
 Initialization pass.
                           ----------------------------
                           !    Initial Parameters    !
                           ! (Angstroms and Degrees)  !
 --------------------------                            --------------------------
 ! Name  Definition              Value          Derivative Info.                !
 --------------------------------------------------------------------------------
 ! R1    R(1,2)                  1.2053         estimate D2E/DX2                !
 ! R2    R(1,3)                  1.0584         estimate D2E/DX2                !
 ! R3    R(2,4)                  1.0584         estimate D2E/DX2                !
 ! A1    L(2,1,3,-3,-1)        180.0003         estimate D2E/DX2                !
 ! A2    L(1,2,4,-3,-1)        179.9997         estimate D2E/DX2                !
 ! A3    L(2,1,3,-2,-2)        180.0            estimate D2E/DX2                !
 ! A4    L(1,2,4,-2,-2)        180.0            estimate D2E/DX2                !
 --------------------------------------------------------------------------------
 Trust Radius=3.00D-01 FncErr=1.00D-07 GrdErr=1.00D-07
 Number of steps in this run=     20 maximum allowed number of steps=    100.
 GradGradGradGradGradGradGradGradGradGradGradGradGradGradGradGradGradGrad

                          Input orientation:                          
 ---------------------------------------------------------------------
 Center     Atomic      Atomic             Coordinates (Angstroms)
 Number     Number       Type             X           Y           Z
 ---------------------------------------------------------------------
      1          6           0       -8.445110    3.249110    0.000000
      2          6           0       -7.239980    3.271540    0.000000
      3          1           0       -9.503310    3.229420    0.000000
      4          1           0       -6.181780    3.291240    0.000000
 ---------------------------------------------------------------------
                    Distance matrix (angstroms):
                    1          2          3          4
     1  C    0.000000
     2  C    1.205339   0.000000
     3  H    1.058383   2.263722   0.000000
     4  H    2.263722   1.058383   3.322105   0.000000
 Stoichiometry    C2H2
 Framework group  D*H[C*(C.C),X(H2)]
 NUMDOF-- UNRECOGNIZED SYMMETRIC SUBSPACE, ICHAR= X   "
 Deg. of freedom    -1
 Full point group                         NOp   0
 Largest Abelian subgroup         D2H     NOp   8
 Largest concise Abelian subgroup C2      NOp   2
                         Standard orientation:                         
 ---------------------------------------------------------------------
 Center     Atomic      Atomic             Coordinates (Angstroms)
 Number     Number       Type             X           Y           Z
 ---------------------------------------------------------------------
      1          6           0        0.000000    0.000000   -0.602669
      2          6           0        0.000000    0.000000    0.602669
      3          1           0        0.000000    0.000000   -1.661053
      4          1           0        0.000000    0.000000    1.661053
 ---------------------------------------------------------------------
 Rotational constants (GHZ):      0.0000000     35.3946027     35.3946027
 Standard basis: LANL2DZ (5D, 7F)
 There are     7 symmetry adapted cartesian basis functions of AG  symmetry.
 There are     0 symmetry adapted cartesian basis functions of B1G symmetry.
 There are     2 symmetry adapted cartesian basis functions of B2G symmetry.
 There are     2 symmetry adapted cartesian basis functions of B3G symmetry.
 There are     0 symmetry adapted cartesian basis functions of AU  symmetry.
 There are     7 symmetry adapted cartesian basis functions of B1U symmetry.
 There are     2 symmetry adapted cartesian basis functions of B2U symmetry.
 There are     2 symmetry adapted cartesian basis functions of B3U symmetry.
 There are     7 symmetry adapted basis functions of AG  symmetry.
 There are     0 symmetry adapted basis functions of B1G symmetry.
 There are     2 symmetry adapted basis functions of B2G symmetry.
 There are     2 symmetry adapted basis functions of B3G symmetry.
 There are     0 symmetry adapted basis functions of AU  symmetry.
 There are     7 symmetry adapted basis functions of B1U symmetry.
 There are     2 symmetry adapted basis functions of B2U symmetry.
 There are     2 symmetry adapted basis functions of B3U symmetry.
    22 basis functions,    58 primitive gaussians,    22 cartesian basis functions
     7 alpha electrons        7 beta electrons
       nuclear repulsion energy        24.7692980314 Hartrees.
 NAtoms=    4 NActive=    4 NUniq=    2 SFac= 4.00D+00 NAtFMM=   60 NAOKFM=F Big=F
 Integral buffers will be    131072 words long.
 Raffenetti 1 integral format.
 Two-electron integral symmetry is turned on.
 One-electron integrals computed using PRISM.
   8 Symmetry operations used in ECPInt.
 ECPInt:  NShTT=     105 NPrTT=     803 LenC2=     106 LenP2D=     735.
 LDataN:  DoStor=T MaxTD1= 2 Len=   12
 NBasis=    22 RedAO= T EigKep=  9.23D-03  NBF=     7     0     2     2     0     7     2     2
 NBsUse=    22 1.00D-06 EigRej= -1.00D+00 NBFU=     7     0     2     2     0     7     2     2
 ExpMin= 1.15D-01 ExpMax= 4.23D+03 ExpMxC= 1.46D+02 IAcc=1 IRadAn=         1 AccDes= 0.00D+00
 Harris functional with IExCor=  205 and IRadAn=       1 diagonalized for initial guess.
 HarFok:  IExCor=  205 AccDes= 0.00D+00 IRadAn=         1 IDoV= 1 UseB2=F ITyADJ=14
 ICtDFT=  3500011 ScaDFX=  1.000000  1.000000  1.000000  1.000000
 FoFCou: FMM=F IPFlag=           0 FMFlag=      100000 FMFlg1=           0
         NFxFlg=           0 DoJE=T BraDBF=F KetDBF=T FulRan=T
         wScrn=  0.000000 ICntrl=     500 IOpCl=  0 I1Cent=   200000004 NGrid=           0
         NMat0=    1 NMatS0=      1 NMatT0=    0 NMatD0=    1 NMtDS0=    0 NMtDT0=    0
 Petite list used in FoFCou.
 Initial guess orbital symmetries:
       Occupied  (SGG) (SGU) (SGG) (SGU) (SGG) (PIU) (PIU)
       Virtual   (PIG) (PIG) (SGU) (SGG) (SGU) (PIU) (PIU) (PIG)
                 (PIG) (SGG) (SGG) (SGU) (SGU) (SGG) (SGU)
 The electronic state of the initial guess is 1-SGG.
 Keep R1 ints in memory in symmetry-blocked form, NReq=868019.
 Requested convergence on RMS density matrix=1.00D-08 within 128 cycles.
 Requested convergence on MAX density matrix=1.00D-06.
 Requested convergence on             energy=1.00D-06.
 No special actions if energy rises.
 SCF Done:  E(RHF) =  -76.7987847944     A.U. after    8 cycles
            NFock=  8  Conv=0.42D-08     -V/T= 2.0004
 ExpMin= 1.15D-01 ExpMax= 4.23D+03 ExpMxC= 1.46D+02 IAcc=3 IRadAn=         5 AccDes= 0.00D+00
 HarFok:  IExCor=  205 AccDes= 0.00D+00 IRadAn=         5 IDoV=-2 UseB2=F ITyADJ=14
 ICtDFT= 12500011 ScaDFX=  1.000000  1.000000  1.000000  1.000000
 Range of M.O.s used for correlation:     3    22
 NBasis=    22 NAE=     7 NBE=     7 NFC=     2 NFV=     0
 NROrb=     20 NOA=     5 NOB=     5 NVA=    15 NVB=    15
 Semi-Direct transformation.
 ModeAB=           4 MOrb=             5 LenV=      33430635
 LASXX=         2380 LTotXX=        2380 LenRXX=        5278
 LTotAB=        2898 MaxLAS=       14400 LenRXY=           0
 NonZer=        7658 LenScr=      785920 LnRSAI=       14400
 LnScr1=      785920 LExtra=           0 Total=      1591518
 MaxDsk=          -1 SrtSym=           T ITran=            4
 JobTyp=0 Pass  1:  I=   1 to   5.
 (rs|ai) integrals will be sorted in core.
 Spin components of T(2) and E(2):
     alpha-alpha T2 =       0.1052783148D-01 E2=     -0.2079730559D-01
     alpha-beta  T2 =       0.6612412570D-01 E2=     -0.1344639237D+00
     beta-beta   T2 =       0.1052783148D-01 E2=     -0.2079730559D-01
 ANorm=    0.1042679140D+01
 E2 =    -0.1760585349D+00 EUMP2 =    -0.76974843329290D+02
 Keep R2 and R3 ints in memory in symmetry-blocked form, NReq=835181.
 Iterations=  50 Convergence= 0.100D-07
 Iteration Nr.   1
 **********************
 DD1Dir will call FoFMem   1 times, MxPair=        30
 NAB=    15 NAA=     0 NBB=     0.
 MP4(R+Q)=  0.12178363D-02
 E3=       -0.44757646D-02        EUMP3=      -0.76979319094D+02
 E4(DQ)=   -0.53886106D-02        UMP4(DQ)=   -0.76984707704D+02
 E4(SDQ)=  -0.66601049D-02        UMP4(SDQ)=  -0.76985979199D+02
 DE(Corr)= -0.17925725     E(Corr)=     -76.978042041    
 NORM(A)=   0.10457576D+01
 Iteration Nr.   2
 **********************
 DD1Dir will call FoFMem   1 times, MxPair=        30
 NAB=    15 NAA=     0 NBB=     0.
 DE(Corr)= -0.18566884     E(CORR)=     -76.984453631     Delta=-6.41D-03
 NORM(A)=   0.10527824D+01
 Iteration Nr.   3
 **********************
 DD1Dir will call FoFMem   1 times, MxPair=        30
 NAB=    15 NAA=     0 NBB=     0.
 DE(Corr)= -0.18865014     E(CORR)=     -76.987434935     Delta=-2.98D-03
 NORM(A)=   0.10549551D+01
 Iteration Nr.   4
 **********************
 DD1Dir will call FoFMem   1 times, MxPair=        30
 NAB=    15 NAA=     0 NBB=     0.
 DE(Corr)= -0.18975218     E(CORR)=     -76.988536973     Delta=-1.10D-03
 NORM(A)=   0.10555354D+01
 Iteration Nr.   5
 **********************
 DD1Dir will call FoFMem   1 times, MxPair=        30
 NAB=    15 NAA=     0 NBB=     0.
 DE(Corr)= -0.18991655     E(CORR)=     -76.988701341     Delta=-1.64D-04
 NORM(A)=   0.10555735D+01
 Iteration Nr.   6
 **********************
 DD1Dir will call FoFMem   1 times, MxPair=        30
 NAB=    15 NAA=     0 NBB=     0.
 DE(Corr)= -0.18992261     E(CORR)=     -76.988707404     Delta=-6.06D-06
 NORM(A)=   0.10555769D+01
 Iteration Nr.   7
 **********************
 DD1Dir will call FoFMem   1 times, MxPair=        30
 NAB=    15 NAA=     0 NBB=     0.
 DE(Corr)= -0.18992295     E(CORR)=     -76.988707742     Delta=-3.38D-07
 NORM(A)=   0.10555785D+01
 Iteration Nr.   8
 **********************
 DD1Dir will call FoFMem   1 times, MxPair=        30
 NAB=    15 NAA=     0 NBB=     0.
 DE(Corr)= -0.18992322     E(CORR)=     -76.988708014     Delta=-2.72D-07
 NORM(A)=   0.10555783D+01
 Iteration Nr.   9
 **********************
 DD1Dir will call FoFMem   1 times, MxPair=        30
 NAB=    15 NAA=     0 NBB=     0.
 DE(Corr)= -0.18992329     E(CORR)=     -76.988708082     Delta=-6.86D-08
 NORM(A)=   0.10555783D+01
 Iteration Nr.  10
 **********************
 DD1Dir will call FoFMem   1 times, MxPair=        30
 NAB=    15 NAA=     0 NBB=     0.
 DE(Corr)= -0.18992325     E(CORR)=     -76.988708040     Delta= 4.24D-08
 NORM(A)=   0.10555782D+01
 Iteration Nr.  11
 **********************
 DD1Dir will call FoFMem   1 times, MxPair=        30
 NAB=    15 NAA=     0 NBB=     0.
 DE(Corr)= -0.18992322     E(CORR)=     -76.988708017     Delta= 2.33D-08
 NORM(A)=   0.10555782D+01
 Iteration Nr.  12
 **********************
 DD1Dir will call FoFMem   1 times, MxPair=        30
 NAB=    15 NAA=     0 NBB=     0.
 DE(Corr)= -0.18992321     E(CORR)=     -76.988708004     Delta= 1.24D-08
 NORM(A)=   0.10555782D+01
 Iteration Nr.  13
 **********************
 DD1Dir will call FoFMem   1 times, MxPair=        30
 NAB=    15 NAA=     0 NBB=     0.
 DE(Corr)= -0.18992320     E(CORR)=     -76.988707999     Delta= 5.46D-09
 NORM(A)=   0.10555782D+01
 Largest amplitude= 9.84D-02

 Z-AMPLITUDE ITERATIONS

 Iteration Nr.   1
 **********************
 DD1Dir will call FoFMem   1 times, MxPair=        30
 NAB=    15 NAA=     0 NBB=     0.
 DE(Z)  -0.18598241D+00          E(Z)=    -0.76984767203D+02
 NORM(A)=   0.10555781D+01
 Iteration Nr.   2
 **********************
 DD1Dir will call FoFMem   1 times, MxPair=        30
 NAB=    15 NAA=     0 NBB=     0.
 DE(Z)  -0.18598240D+00          E(Z)=    -0.76984767192D+02
 NORM(A)=   0.10555779D+01
 Iteration Nr.   3
 **********************
 DD1Dir will call FoFMem   1 times, MxPair=        30
 NAB=    15 NAA=     0 NBB=     0.
 DE(Z)  -0.18598237D+00          E(Z)=    -0.76984767160D+02
 NORM(A)=   0.10555787D+01
 Iteration Nr.   4
 **********************
 DD1Dir will call FoFMem   1 times, MxPair=        30
 NAB=    15 NAA=     0 NBB=     0.
 DE(Z)  -0.18598249D+00          E(Z)=    -0.76984767281D+02
 NORM(A)=   0.10555779D+01
 Iteration Nr.   5
 **********************
 DD1Dir will call FoFMem   1 times, MxPair=        30
 NAB=    15 NAA=     0 NBB=     0.
 DE(Z)  -0.18598237D+00          E(Z)=    -0.76984767162D+02
 NORM(A)=   0.10524556D+01
 Iteration Nr.   6
 **********************
 DD1Dir will call FoFMem   1 times, MxPair=        30
 NAB=    15 NAA=     0 NBB=     0.
 DE(Z)  -0.18548351D+00          E(Z)=    -0.76984268307D+02
 NORM(A)=   0.10524808D+01
 Iteration Nr.   7
 **********************
 DD1Dir will call FoFMem   1 times, MxPair=        30
 NAB=    15 NAA=     0 NBB=     0.
 DE(Z)  -0.18548963D+00          E(Z)=    -0.76984274421D+02
 NORM(A)=   0.10524879D+01
 Iteration Nr.   8
 **********************
 DD1Dir will call FoFMem   1 times, MxPair=        30
 NAB=    15 NAA=     0 NBB=     0.
 DE(Z)  -0.18549135D+00          E(Z)=    -0.76984276148D+02
 NORM(A)=   0.10524887D+01
 Iteration Nr.   9
 **********************
 DD1Dir will call FoFMem   1 times, MxPair=        30
 NAB=    15 NAA=     0 NBB=     0.
 DE(Z)  -0.18549154D+00          E(Z)=    -0.76984276331D+02
 NORM(A)=   0.10524888D+01
 Iteration Nr.  10
 **********************
 DD1Dir will call FoFMem   1 times, MxPair=        30
 NAB=    15 NAA=     0 NBB=     0.
 DE(Z)  -0.18549159D+00          E(Z)=    -0.76984276388D+02
 NORM(A)=   0.10524889D+01
 Iteration Nr.  11
 **********************
 DD1Dir will call FoFMem   1 times, MxPair=        30
 NAB=    15 NAA=     0 NBB=     0.
 DE(Z)  -0.18549161D+00          E(Z)=    -0.76984276401D+02
 NORM(A)=   0.10524889D+01
 Iteration Nr.  12
 **********************
 DD1Dir will call FoFMem   1 times, MxPair=        30
 NAB=    15 NAA=     0 NBB=     0.
 DE(Z)  -0.18549161D+00          E(Z)=    -0.76984276402D+02
 NORM(A)=   0.10524889D+01
 Discarding MO integrals.
          IDoAtm=1111
          Differentiating once with respect to electric field.
                with respect to dipole field.
          Differentiating once with respect to nuclear coordinates.
 Keep R1 ints in memory in symmetry-blocked form, NReq=853848.
          There are     1 degrees of freedom in the 1st order CPHF.  IDoFFX=0 NUNeed=     1.
 LinEq1:  Iter=  0 NonCon=     1 RMS=8.03D-03 Max=5.41D-02 NDo=     1
 AX will form     1 AO Fock derivatives at one time.
 LinEq1:  Iter=  1 NonCon=     1 RMS=1.87D-03 Max=1.42D-02 NDo=     1
 LinEq1:  Iter=  2 NonCon=     1 RMS=1.76D-04 Max=1.06D-03 NDo=     1
 LinEq1:  Iter=  3 NonCon=     1 RMS=6.40D-06 Max=2.67D-05 NDo=     1
 LinEq1:  Iter=  4 NonCon=     1 RMS=2.62D-07 Max=1.44D-06 NDo=     1
 LinEq1:  Iter=  5 NonCon=     1 RMS=2.07D-08 Max=8.34D-08 NDo=     1
 LinEq1:  Iter=  6 NonCon=     1 RMS=1.21D-09 Max=7.47D-09 NDo=     1
 LinEq1:  Iter=  7 NonCon=     0 RMS=6.89D-11 Max=3.44D-10 NDo=     1
 Linear equations converged to 1.000D-10 1.000D-09 after     7 iterations.
 End of Minotr F.D. properties file   721 does not exist.
 End of Minotr F.D. properties file   722 does not exist.
 End of Minotr F.D. properties file   788 does not exist.

 **********************************************************************

            Population analysis using the SCF density.

 **********************************************************************

 Orbital symmetries:
       Occupied  (SGG) (SGU) (SGG) (SGU) (SGG) (PIU) (PIU)
       Virtual   (PIG) (PIG) (SGU) (SGG) (SGU) (PIU) (PIU) (SGG)
                 (PIG) (PIG) (SGG) (SGU) (SGU) (SGG) (SGU)
 The electronic state is 1-SGG.
 Alpha  occ. eigenvalues --  -11.26086 -11.25722  -1.04122  -0.76600  -0.68283
 Alpha  occ. eigenvalues --   -0.41398  -0.41398
 Alpha virt. eigenvalues --    0.17480   0.17480   0.24055   0.34721   0.36197
 Alpha virt. eigenvalues --    0.46346   0.46346   0.59983   0.63414   0.63414
 Alpha virt. eigenvalues --    0.65824   1.10654   1.24114   1.52529   1.79010
          Condensed to atoms (all electrons):
               1          2          3          4
     1  C    4.925402   0.978269   0.377855  -0.017869
     2  C    0.978269   4.925402  -0.017869   0.377855
     3  H    0.377855  -0.017869   0.376196   0.000162
     4  H   -0.017869   0.377855   0.000162   0.376196
 Mulliken charges:
               1
     1  C   -0.263657
     2  C   -0.263657
     3  H    0.263657
     4  H    0.263657
 Sum of Mulliken charges =   0.00000
 Mulliken charges with hydrogens summed into heavy atoms:
               1
     1  C    0.000000
     2  C    0.000000
 Electronic spatial extent (au):  <R**2>=             61.0830
 Charge=              0.0000 electrons
 Dipole moment (field-independent basis, Debye):
    X=              0.0000    Y=              0.0000    Z=              0.0000  Tot=              0.0000
 Quadrupole moment (field-independent basis, Debye-Ang):
   XX=            -13.9519   YY=            -13.9519   ZZ=             -6.8150
   XY=              0.0000   XZ=              0.0000   YZ=              0.0000
 Traceless Quadrupole moment (field-independent basis, Debye-Ang):
   XX=             -2.3789   YY=             -2.3789   ZZ=              4.7579
   XY=              0.0000   XZ=              0.0000   YZ=              0.0000
 Octapole moment (field-independent basis, Debye-Ang**2):
  XXX=              0.0000  YYY=              0.0000  ZZZ=              0.0000  XYY=              0.0000
  XXY=              0.0000  XXZ=              0.0000  XZZ=              0.0000  YZZ=              0.0000
  YYZ=              0.0000  XYZ=              0.0000
 Hexadecapole moment (field-independent basis, Debye-Ang**3):
 XXXX=            -16.5399 YYYY=            -16.5399 ZZZZ=            -35.1076 XXXY=              0.0000
 XXXZ=              0.0000 YYYX=              0.0000 YYYZ=              0.0000 ZZZX=              0.0000
 ZZZY=              0.0000 XXYY=             -5.5133 XXZZ=            -12.3037 YYZZ=            -12.3037
 XXYZ=              0.0000 YYXZ=              0.0000 ZZXY=              0.0000
 N-N= 2.476929803136D+01 E-N=-2.282321032483D+02  KE= 7.676811254373D+01
 Symmetry AG   KE= 3.798370743580D+01
 Symmetry B1G  KE= 0.000000000000D+00
 Symmetry B2G  KE= 1.693561548077D-33
 Symmetry B3G  KE= 5.619974995887D-33
 Symmetry AU   KE= 0.000000000000D+00
 Symmetry B1U  KE= 3.456372345100D+01
 Symmetry B2U  KE= 2.110340828462D+00
 Symmetry B3U  KE= 2.110340828462D+00
   8 Symmetry operations used in ECPInt.
 ECPInt:  NShTT=     105 NPrTT=     803 LenC2=     106 LenP2D=     735.
 LDataN:  DoStor=T MaxTD1= 3 Len=   28
 Calling FoFJK, ICntrl=  10002127 FMM=F ISym2X=1 I1Cent= 0 IOpClX= 0 NMat=1 NMatS=1 NMatT=0.
 ***** Axes restored to original set *****
 -------------------------------------------------------------------
 Center     Atomic                   Forces (Hartrees/Bohr)
 Number     Number              X              Y              Z
 -------------------------------------------------------------------
      1        6          -0.056285474   -0.001047585    0.000000000
      2        6           0.056285474    0.001047585    0.000000000
      3        1          -0.012740198   -0.000237120    0.000000000
      4        1           0.012740198    0.000237120    0.000000000
 -------------------------------------------------------------------
 Cartesian Forces:  Max     0.056285474 RMS     0.023563817

 GradGradGradGradGradGradGradGradGradGradGradGradGradGradGradGradGradGrad
 Berny optimization.
 FormGI is forming the generalized inverse of G from B-inverse, IUseBI=4.
 Internal  Forces:  Max     0.069037627 RMS     0.026968054
 Search for a local minimum.
 Step number   1 out of a maximum of   20
 All quantities printed in internal units (Hartrees-Bohrs-Radians)
 Mixed Optimization -- RFO/linear search
 Second derivative matrix not updated -- first step.
 The second derivative matrix:
                          R1        R2        R3        A1        A2
           R1           1.02186
           R2           0.00000   0.38738
           R3           0.00000   0.00000   0.38738
           A1           0.00000   0.00000   0.00000   0.00653
           A2           0.00000   0.00000   0.00000   0.00000   0.00653
           A3           0.00000   0.00000   0.00000   0.00000   0.00000
           A4           0.00000   0.00000   0.00000   0.00000   0.00000
                          A3        A4
           A3           0.00653
           A4           0.00000   0.00653
 ITU=  0
     Eigenvalues ---    0.00653   0.00653   0.00653   0.00653   0.38738
     Eigenvalues ---    0.38738   1.02186
 RFO step:  Lambda=-5.46606934D-03 EMin= 6.53060099D-03
 Linear search not attempted -- first point.
 Iteration  1 RMS(Cart)=  0.03960486 RMS(Int)=  0.00000001
 Iteration  2 RMS(Cart)=  0.00000001 RMS(Int)=  0.00000001
 ClnCor:  largest displacement from symmetrization is 1.76D-08 for atom     1.
 Variable       Old X    -DE/DX   Delta X   Delta X   Delta X     New X
                                 (Linear)    (Quad)   (Total)
    R1        2.27776   0.06904   0.00000   0.06720   0.06720   2.34496
    R2        2.00005   0.01274   0.00000   0.03244   0.03244   2.03249
    R3        2.00005   0.01274   0.00000   0.03244   0.03244   2.03249
    A1        3.14159   0.00000   0.00000   0.00000   0.00000   3.14159
    A2        3.14159   0.00000   0.00000   0.00000   0.00000   3.14159
    A3        3.14159   0.00000   0.00000   0.00000   0.00000   3.14159
    A4        3.14159   0.00000   0.00000   0.00000   0.00000   3.14159
         Item               Value     Threshold  Converged?
 Maximum Force            0.069038     0.000450     NO 
 RMS     Force            0.026968     0.000300     NO 
 Maximum Displacement     0.066026     0.001800     NO 
 RMS     Displacement     0.039605     0.001200     NO 
 Predicted change in Energy=-2.751127D-03
 GradGradGradGradGradGradGradGradGradGradGradGradGradGradGradGradGradGrad

                          Input orientation:                          
 ---------------------------------------------------------------------
 Center     Atomic      Atomic             Coordinates (Angstroms)
 Number     Number       Type             X           Y           Z
 ---------------------------------------------------------------------
      1          6           0       -8.462888    3.248780    0.000000
      2          6           0       -7.222202    3.271872    0.000000
      3          1           0       -9.538249    3.228765    0.000000
      4          1           0       -6.146841    3.291886    0.000000
 ---------------------------------------------------------------------
                    Distance matrix (angstroms):
                    1          2          3          4
     1  C    0.000000
     2  C    1.240900   0.000000
     3  H    1.075548   2.316448   0.000000
     4  H    2.316448   1.075548   3.391996   0.000000
 Stoichiometry    C2H2
 Framework group  D*H[C*(HC.CH)]
 Deg. of freedom     2
 Full point group                 D*H     NOp   8
 Omega: Change in point group or standard orientation.

 Old FWG=D*H  [C*(C1.C1),X(H2)]
 New FWG=D*H  [C*(H1C1.C1H1)]
 Largest Abelian subgroup         D2H     NOp   8
 Largest concise Abelian subgroup C2      NOp   2
                         Standard orientation:                         
 ---------------------------------------------------------------------
 Center     Atomic      Atomic             Coordinates (Angstroms)
 Number     Number       Type             X           Y           Z
 ---------------------------------------------------------------------
      1          6           0        0.000000    0.000000   -0.620450
      2          6           0        0.000000    0.000000    0.620450
      3          1           0        0.000000    0.000000   -1.695998
      4          1           0        0.000000    0.000000    1.695998
 ---------------------------------------------------------------------
 Rotational constants (GHZ):      0.0000000     33.6094018     33.6094018
 Standard basis: LANL2DZ (5D, 7F)
 There are     7 symmetry adapted cartesian basis functions of AG  symmetry.
 There are     0 symmetry adapted cartesian basis functions of B1G symmetry.
 There are     2 symmetry adapted cartesian basis functions of B2G symmetry.
 There are     2 symmetry adapted cartesian basis functions of B3G symmetry.
 There are     0 symmetry adapted cartesian basis functions of AU  symmetry.
 There are     7 symmetry adapted cartesian basis functions of B1U symmetry.
 There are     2 symmetry adapted cartesian basis functions of B2U symmetry.
 There are     2 symmetry adapted cartesian basis functions of B3U symmetry.
 There are     7 symmetry adapted basis functions of AG  symmetry.
 There are     0 symmetry adapted basis functions of B1G symmetry.
 There are     2 symmetry adapted basis functions of B2G symmetry.
 There are     2 symmetry adapted basis functions of B3G symmetry.
 There are     0 symmetry adapted basis functions of AU  symmetry.
 There are     7 symmetry adapted basis functions of B1U symmetry.
 There are     2 symmetry adapted basis functions of B2U symmetry.
 There are     2 symmetry adapted basis functions of B3U symmetry.
    22 basis functions,    58 primitive gaussians,    22 cartesian basis functions
     7 alpha electrons        7 beta electrons
       nuclear repulsion energy        24.1534777653 Hartrees.
 NAtoms=    4 NActive=    4 NUniq=    2 SFac= 4.00D+00 NAtFMM=   60 NAOKFM=F Big=F
 Integral buffers will be    131072 words long.
 Raffenetti 1 integral format.
 Two-electron integral symmetry is turned on.
 One-electron integrals computed using PRISM.
   8 Symmetry operations used in ECPInt.
 ECPInt:  NShTT=     105 NPrTT=     803 LenC2=     106 LenP2D=     735.
 LDataN:  DoStor=T MaxTD1= 2 Len=   12
 NBasis=    22 RedAO= T EigKep=  9.41D-03  NBF=     7     0     2     2     0     7     2     2
 NBsUse=    22 1.00D-06 EigRej= -1.00D+00 NBFU=     7     0     2     2     0     7     2     2
 Initial guess from the checkpoint file:  "/scr/Gau-16212.chk"
 B after Tr=     0.000000    0.000000    0.000000
         Rot=    1.000000    0.000000    0.000000    0.000000 Ang=   0.00 deg.
 Initial guess orbital symmetries:
       Occupied  (SGG) (SGU) (SGG) (SGU) (SGG) (PIU) (PIU)
       Virtual   (SGG) (SGG) (SGG) (SGG) (PIG) (PIG) (PIG) (PIG)
                 (SGU) (SGU) (SGU) (SGU) (SGU) (PIU) (PIU)
 ExpMin= 1.15D-01 ExpMax= 4.23D+03 ExpMxC= 1.46D+02 IAcc=1 IRadAn=         1 AccDes= 0.00D+00
 Harris functional with IExCor=  205 and IRadAn=       1 diagonalized for initial guess.
 HarFok:  IExCor=  205 AccDes= 0.00D+00 IRadAn=         1 IDoV= 1 UseB2=F ITyADJ=14
 ICtDFT=  3500011 ScaDFX=  1.000000  1.000000  1.000000  1.000000
 FoFCou: FMM=F IPFlag=           0 FMFlag=      100000 FMFlg1=           0
         NFxFlg=           0 DoJE=T BraDBF=F KetDBF=T FulRan=T
         wScrn=  0.000000 ICntrl=     500 IOpCl=  0 I1Cent=   200000004 NGrid=           0
         NMat0=    1 NMatS0=      1 NMatT0=    0 NMatD0=    1 NMtDS0=    0 NMtDT0=    0
 Petite list used in FoFCou.
 Keep R1 ints in memory in symmetry-blocked form, NReq=867963.
 Requested convergence on RMS density matrix=1.00D-08 within 128 cycles.
 Requested convergence on MAX density matrix=1.00D-06.
 Requested convergence on             energy=1.00D-06.
 No special actions if energy rises.
 SCF Done:  E(RHF) =  -76.7950141166     A.U. after    8 cycles
            NFock=  8  Conv=0.90D-09     -V/T= 2.0031
 ExpMin= 1.15D-01 ExpMax= 4.23D+03 ExpMxC= 1.46D+02 IAcc=3 IRadAn=         5 AccDes= 0.00D+00
 HarFok:  IExCor=  205 AccDes= 0.00D+00 IRadAn=         5 IDoV=-2 UseB2=F ITyADJ=14
 ICtDFT= 12500011 ScaDFX=  1.000000  1.000000  1.000000  1.000000
 Range of M.O.s used for correlation:     3    22
 NBasis=    22 NAE=     7 NBE=     7 NFC=     2 NFV=     0
 NROrb=     20 NOA=     5 NOB=     5 NVA=    15 NVB=    15
 Semi-Direct transformation.
 ModeAB=           4 MOrb=             5 LenV=      33430719
 LASXX=         2380 LTotXX=        2380 LenRXX=        5278
 LTotAB=        2898 MaxLAS=       14400 LenRXY=           0
 NonZer=        7658 LenScr=      785920 LnRSAI=       14400
 LnScr1=      785920 LExtra=           0 Total=      1591518
 MaxDsk=          -1 SrtSym=           T ITran=            4
 JobTyp=0 Pass  1:  I=   1 to   5.
 (rs|ai) integrals will be sorted in core.
 Spin components of T(2) and E(2):
     alpha-alpha T2 =       0.1136144456D-01 E2=     -0.2171962115D-01
     alpha-beta  T2 =       0.7098520815D-01 E2=     -0.1395120935D+00
     beta-beta   T2 =       0.1136144456D-01 E2=     -0.2171962115D-01
 ANorm=    0.1045805000D+01
 E2 =    -0.1829513358D+00 EUMP2 =    -0.76977965452345D+02
 Keep R2 and R3 ints in memory in symmetry-blocked form, NReq=835181.
 Iterations=  50 Convergence= 0.100D-07
 Iteration Nr.   1
 **********************
 DD1Dir will call FoFMem   1 times, MxPair=        30
 NAB=    15 NAA=     0 NBB=     0.
 MP4(R+Q)=  0.12674289D-02
 E3=       -0.27442413D-02        EUMP3=      -0.76980709694D+02
 E4(DQ)=   -0.60666074D-02        UMP4(DQ)=   -0.76986776301D+02
 E4(SDQ)=  -0.76521091D-02        UMP4(SDQ)=  -0.76988361803D+02
 DE(Corr)= -0.18434528     E(Corr)=     -76.979359396    
 NORM(A)=   0.10482108D+01
 Iteration Nr.   2
 **********************
 DD1Dir will call FoFMem   1 times, MxPair=        30
 NAB=    15 NAA=     0 NBB=     0.
 DE(Corr)= -0.19149319     E(CORR)=     -76.986507303     Delta=-7.15D-03
 NORM(A)=   0.10562009D+01
 Iteration Nr.   3
 **********************
 DD1Dir will call FoFMem   1 times, MxPair=        30
 NAB=    15 NAA=     0 NBB=     0.
 DE(Corr)= -0.19469869     E(CORR)=     -76.989712808     Delta=-3.21D-03
 NORM(A)=   0.10588840D+01
 Iteration Nr.   4
 **********************
 DD1Dir will call FoFMem   1 times, MxPair=        30
 NAB=    15 NAA=     0 NBB=     0.
 DE(Corr)= -0.19602374     E(CORR)=     -76.991037853     Delta=-1.33D-03
 NORM(A)=   0.10596564D+01
 Iteration Nr.   5
 **********************
 DD1Dir will call FoFMem   1 times, MxPair=        30
 NAB=    15 NAA=     0 NBB=     0.
 DE(Corr)= -0.19623651     E(CORR)=     -76.991250631     Delta=-2.13D-04
 NORM(A)=   0.10597085D+01
 Iteration Nr.   6
 **********************
 DD1Dir will call FoFMem   1 times, MxPair=        30
 NAB=    15 NAA=     0 NBB=     0.
 DE(Corr)= -0.19624477     E(CORR)=     -76.991258891     Delta=-8.26D-06
 NORM(A)=   0.10597132D+01
 Iteration Nr.   7
 **********************
 DD1Dir will call FoFMem   1 times, MxPair=        30
 NAB=    15 NAA=     0 NBB=     0.
 DE(Corr)= -0.19624526     E(CORR)=     -76.991259374     Delta=-4.83D-07
 NORM(A)=   0.10597157D+01
 Iteration Nr.   8
 **********************
 DD1Dir will call FoFMem   1 times, MxPair=        30
 NAB=    15 NAA=     0 NBB=     0.
 DE(Corr)= -0.19624560     E(CORR)=     -76.991259717     Delta=-3.42D-07
 NORM(A)=   0.10597154D+01
 Iteration Nr.   9
 **********************
 DD1Dir will call FoFMem   1 times, MxPair=        30
 NAB=    15 NAA=     0 NBB=     0.
 DE(Corr)= -0.19624572     E(CORR)=     -76.991259832     Delta=-1.15D-07
 NORM(A)=   0.10597154D+01
 Iteration Nr.  10
 **********************
 DD1Dir will call FoFMem   1 times, MxPair=        30
 NAB=    15 NAA=     0 NBB=     0.
 DE(Corr)= -0.19624566     E(CORR)=     -76.991259776     Delta= 5.57D-08
 NORM(A)=   0.10597153D+01
 Iteration Nr.  11
 **********************
 DD1Dir will call FoFMem   1 times, MxPair=        30
 NAB=    15 NAA=     0 NBB=     0.
 DE(Corr)= -0.19624563     E(CORR)=     -76.991259748     Delta= 2.80D-08
 NORM(A)=   0.10597153D+01
 Iteration Nr.  12
 **********************
 DD1Dir will call FoFMem   1 times, MxPair=        30
 NAB=    15 NAA=     0 NBB=     0.
 DE(Corr)= -0.19624562     E(CORR)=     -76.991259733     Delta= 1.53D-08
 NORM(A)=   0.10597153D+01
 Iteration Nr.  13
 **********************
 DD1Dir will call FoFMem   1 times, MxPair=        30
 NAB=    15 NAA=     0 NBB=     0.
 DE(Corr)= -0.19624561     E(CORR)=     -76.991259726     Delta= 6.61D-09
 NORM(A)=   0.10597153D+01
 Dominant configurations:
 ***********************
 Spin Case        I    J    A    B          Value
   ABAB           6    6    8    8      -0.106550D+00
   ABAB           7    7    9    9      -0.106550D+00
 Largest amplitude= 1.07D-01

 Z-AMPLITUDE ITERATIONS

 Iteration Nr.   1
 **********************
 DD1Dir will call FoFMem   1 times, MxPair=        30
 NAB=    15 NAA=     0 NBB=     0.
 DE(Z)  -0.19173673D+00          E(Z)=    -0.76986750851D+02
 NORM(A)=   0.10597153D+01
 Iteration Nr.   2
 **********************
 DD1Dir will call FoFMem   1 times, MxPair=        30
 NAB=    15 NAA=     0 NBB=     0.
 DE(Z)  -0.19173673D+00          E(Z)=    -0.76986750842D+02
 NORM(A)=   0.10597155D+01
 Iteration Nr.   3
 **********************
 DD1Dir will call FoFMem   1 times, MxPair=        30
 NAB=    15 NAA=     0 NBB=     0.
 DE(Z)  -0.19173676D+00          E(Z)=    -0.76986750880D+02
 NORM(A)=   0.10597152D+01
 Iteration Nr.   4
 **********************
 DD1Dir will call FoFMem   1 times, MxPair=        30
 NAB=    15 NAA=     0 NBB=     0.
 DE(Z)  -0.19173672D+00          E(Z)=    -0.76986750834D+02
 NORM(A)=   0.10597152D+01
 Iteration Nr.   5
 **********************
 DD1Dir will call FoFMem   1 times, MxPair=        30
 NAB=    15 NAA=     0 NBB=     0.
 DE(Z)  -0.19173672D+00          E(Z)=    -0.76986750839D+02
 NORM(A)=   0.10560263D+01
 Iteration Nr.   6
 **********************
 DD1Dir will call FoFMem   1 times, MxPair=        30
 NAB=    15 NAA=     0 NBB=     0.
 DE(Z)  -0.19117837D+00          E(Z)=    -0.76986192485D+02
 NORM(A)=   0.10561577D+01
 Iteration Nr.   7
 **********************
 DD1Dir will call FoFMem   1 times, MxPair=        30
 NAB=    15 NAA=     0 NBB=     0.
 DE(Z)  -0.19123780D+00          E(Z)=    -0.76986251915D+02
 NORM(A)=   0.10561492D+01
 Iteration Nr.   8
 **********************
 DD1Dir will call FoFMem   1 times, MxPair=        30
 NAB=    15 NAA=     0 NBB=     0.
 DE(Z)  -0.19121203D+00          E(Z)=    -0.76986226146D+02
 NORM(A)=   0.10561506D+01
 Iteration Nr.   9
 **********************
 DD1Dir will call FoFMem   1 times, MxPair=        30
 NAB=    15 NAA=     0 NBB=     0.
 DE(Z)  -0.19121231D+00          E(Z)=    -0.76986226428D+02
 NORM(A)=   0.10561505D+01
 Iteration Nr.  10
 **********************
 DD1Dir will call FoFMem   1 times, MxPair=        30
 NAB=    15 NAA=     0 NBB=     0.
 DE(Z)  -0.19121200D+00          E(Z)=    -0.76986226118D+02
 NORM(A)=   0.10561506D+01
 Iteration Nr.  11
 **********************
 DD1Dir will call FoFMem   1 times, MxPair=        30
 NAB=    15 NAA=     0 NBB=     0.
 DE(Z)  -0.19121201D+00          E(Z)=    -0.76986226128D+02
 NORM(A)=   0.10561506D+01
 Iteration Nr.  12
 **********************
 DD1Dir will call FoFMem   1 times, MxPair=        30
 NAB=    15 NAA=     0 NBB=     0.
 DE(Z)  -0.19121202D+00          E(Z)=    -0.76986226135D+02
 NORM(A)=   0.10561506D+01
 Discarding MO integrals.
          IDoAtm=1111
          Differentiating once with respect to electric field.
                with respect to dipole field.
          Differentiating once with respect to nuclear coordinates.
 Keep R1 ints in memory in symmetry-blocked form, NReq=853810.
          There are     1 degrees of freedom in the 1st order CPHF.  IDoFFX=0 NUNeed=     1.
 LinEq1:  Iter=  0 NonCon=     1 RMS=8.83D-03 Max=5.98D-02 NDo=     1
 AX will form     1 AO Fock derivatives at one time.
 LinEq1:  Iter=  1 NonCon=     1 RMS=2.12D-03 Max=1.62D-02 NDo=     1
 LinEq1:  Iter=  2 NonCon=     1 RMS=1.99D-04 Max=1.29D-03 NDo=     1
 LinEq1:  Iter=  3 NonCon=     1 RMS=7.48D-06 Max=3.58D-05 NDo=     1
 LinEq1:  Iter=  4 NonCon=     1 RMS=3.44D-07 Max=1.59D-06 NDo=     1
 LinEq1:  Iter=  5 NonCon=     1 RMS=2.82D-08 Max=1.44D-07 NDo=     1
 LinEq1:  Iter=  6 NonCon=     1 RMS=1.60D-09 Max=7.58D-09 NDo=     1
 LinEq1:  Iter=  7 NonCon=     0 RMS=8.90D-11 Max=5.94D-10 NDo=     1
 Linear equations converged to 1.000D-10 1.000D-09 after     7 iterations.
 End of Minotr F.D. properties file   721 does not exist.
 End of Minotr F.D. properties file   722 does not exist.
 End of Minotr F.D. properties file   788 does not exist.
   8 Symmetry operations used in ECPInt.
 ECPInt:  NShTT=     105 NPrTT=     803 LenC2=     106 LenP2D=     735.
 LDataN:  DoStor=T MaxTD1= 3 Len=   28
 Calling FoFJK, ICntrl=  10002127 FMM=F ISym2X=1 I1Cent= 0 IOpClX= 0 NMat=1 NMatS=1 NMatT=0.
 ***** Axes restored to original set *****
 -------------------------------------------------------------------
 Center     Atomic                   Forces (Hartrees/Bohr)
 Number     Number              X              Y              Z
 -------------------------------------------------------------------
      1        6           0.002811780    0.000052333    0.000000000
      2        6          -0.002811780   -0.000052333    0.000000000
      3        1           0.000004088    0.000000076    0.000000000
      4        1          -0.000004088   -0.000000076    0.000000000
 -------------------------------------------------------------------
 Cartesian Forces:  Max     0.002811780 RMS     0.001148104

 GradGradGradGradGradGradGradGradGradGradGradGradGradGradGradGradGradGrad
 Berny optimization.
 Using GEDIIS/GDIIS optimizer.
 Internal  Forces:  Max     0.002816355 RMS     0.001064484
 Search for a local minimum.
 Step number   2 out of a maximum of   20
 All quantities printed in internal units (Hartrees-Bohrs-Radians)
 Mixed Optimization -- RFO/linear search
 Update second derivatives using D2CorX and points    1    2
 DE= -2.55D-03 DEPred=-2.75D-03 R= 9.28D-01
 TightC=F SS=  1.41D+00  RLast= 8.14D-02 DXNew= 5.0454D-01 2.4410D-01
 Trust test= 9.28D-01 RLast= 8.14D-02 DXMaxT set to 3.00D-01
 The second derivative matrix:
                          R1        R2        R3        A1        A2
           R1           1.06630
           R2           0.00304   0.38703
           R3           0.00304  -0.00035   0.38703
           A1           0.00000   0.00000   0.00000   0.00653
           A2           0.00000   0.00000   0.00000   0.00000   0.00653
           A3           0.00000   0.00000   0.00000   0.00000   0.00000
           A4           0.00000   0.00000   0.00000   0.00000   0.00000
                          A3        A4
           A3           0.00653
           A4           0.00000   0.00653
 ITU=  1  0
 Use linear search instead of GDIIS.
     Eigenvalues ---    0.00653   0.00653   0.00653   0.00653   0.38665
     Eigenvalues ---    0.38738   1.06633
 RFO step:  Lambda=-8.55068462D-07 EMin= 6.53060099D-03
 Quartic linear search produced a step of -0.03671.
 Iteration  1 RMS(Cart)=  0.00114826 RMS(Int)=  0.00000000
 Iteration  2 RMS(Cart)=  0.00000000 RMS(Int)=  0.00000000
 ClnCor:  largest displacement from symmetrization is 4.96D-13 for atom     1.
 Variable       Old X    -DE/DX   Delta X   Delta X   Delta X     New X
                                 (Linear)    (Quad)   (Total)
    R1        2.34496  -0.00282  -0.00247  -0.00035  -0.00281   2.34215
    R2        2.03249   0.00000  -0.00119   0.00097  -0.00022   2.03227
    R3        2.03249   0.00000  -0.00119   0.00097  -0.00022   2.03227
    A1        3.14159   0.00000   0.00000   0.00000   0.00000   3.14159
    A2        3.14159   0.00000   0.00000   0.00000   0.00000   3.14159
    A3        3.14159   0.00000   0.00000   0.00000   0.00000   3.14159
    A4        3.14159   0.00000   0.00000   0.00000   0.00000   3.14159
         Item               Value     Threshold  Converged?
 Maximum Force            0.002816     0.000450     NO 
 RMS     Force            0.001064     0.000300     NO 
 Maximum Displacement     0.001624     0.001800     YES
 RMS     Displacement     0.001148     0.001200     YES
 Predicted change in Energy=-3.683433D-06
 GradGradGradGradGradGradGradGradGradGradGradGradGradGradGradGradGradGrad

                          Input orientation:                          
 ---------------------------------------------------------------------
 Center     Atomic      Atomic             Coordinates (Angstroms)
 Number     Number       Type             X           Y           Z
 ---------------------------------------------------------------------
      1          6           0       -8.462144    3.248794    0.000000
      2          6           0       -7.222946    3.271858    0.000000
      3          1           0       -9.537390    3.228781    0.000000
      4          1           0       -6.147700    3.291870    0.000000
 ---------------------------------------------------------------------
                    Distance matrix (angstroms):
                    1          2          3          4
     1  C    0.000000
     2  C    1.239412   0.000000
     3  H    1.075432   2.314844   0.000000
     4  H    2.314844   1.075432   3.390277   0.000000
 Stoichiometry    C2H2
 Framework group  D*H[C*(HC.CH)]
 Deg. of freedom     2
 Full point group                 D*H     NOp   8
 Largest Abelian subgroup         D2H     NOp   8
 Largest concise Abelian subgroup C2      NOp   2
                         Standard orientation:                         
 ---------------------------------------------------------------------
 Center     Atomic      Atomic             Coordinates (Angstroms)
 Number     Number       Type             X           Y           Z
 ---------------------------------------------------------------------
      1          6           0        0.000000    0.000000   -0.619706
      2          6           0        0.000000    0.000000    0.619706
      3          1           0        0.000000    0.000000   -1.695138
      4          1           0        0.000000    0.000000    1.695138
 ---------------------------------------------------------------------
 Rotational constants (GHZ):      0.0000000     33.6721514     33.6721514
 Standard basis: LANL2DZ (5D, 7F)
 There are     7 symmetry adapted cartesian basis functions of AG  symmetry.
 There are     0 symmetry adapted cartesian basis functions of B1G symmetry.
 There are     2 symmetry adapted cartesian basis functions of B2G symmetry.
 There are     2 symmetry adapted cartesian basis functions of B3G symmetry.
 There are     0 symmetry adapted cartesian basis functions of AU  symmetry.
 There are     7 symmetry adapted cartesian basis functions of B1U symmetry.
 There are     2 symmetry adapted cartesian basis functions of B2U symmetry.
 There are     2 symmetry adapted cartesian basis functions of B3U symmetry.
 There are     7 symmetry adapted basis functions of AG  symmetry.
 There are     0 symmetry adapted basis functions of B1G symmetry.
 There are     2 symmetry adapted basis functions of B2G symmetry.
 There are     2 symmetry adapted basis functions of B3G symmetry.
 There are     0 symmetry adapted basis functions of AU  symmetry.
 There are     7 symmetry adapted basis functions of B1U symmetry.
 There are     2 symmetry adapted basis functions of B2U symmetry.
 There are     2 symmetry adapted basis functions of B3U symmetry.
    22 basis functions,    58 primitive gaussians,    22 cartesian basis functions
     7 alpha electrons        7 beta electrons
       nuclear repulsion energy        24.1745226922 Hartrees.
 NAtoms=    4 NActive=    4 NUniq=    2 SFac= 4.00D+00 NAtFMM=   60 NAOKFM=F Big=F
 Integral buffers will be    131072 words long.
 Raffenetti 1 integral format.
 Two-electron integral symmetry is turned on.
 One-electron integrals computed using PRISM.
   8 Symmetry operations used in ECPInt.
 ECPInt:  NShTT=     105 NPrTT=     803 LenC2=     106 LenP2D=     735.
 LDataN:  DoStor=T MaxTD1= 2 Len=   12
 NBasis=    22 RedAO= T EigKep=  9.40D-03  NBF=     7     0     2     2     0     7     2     2
 NBsUse=    22 1.00D-06 EigRej= -1.00D+00 NBFU=     7     0     2     2     0     7     2     2
 Initial guess from the checkpoint file:  "/scr/Gau-16212.chk"
 B after Tr=     0.000000    0.000000    0.000000
         Rot=    1.000000    0.000000    0.000000    0.000000 Ang=   0.00 deg.
 Initial guess orbital symmetries:
       Occupied  (SGG) (SGU) (SGG) (SGU) (SGG) (PIU) (PIU)
       Virtual   (SGG) (SGG) (SGG) (SGG) (PIG) (PIG) (PIG) (PIG)
                 (SGU) (SGU) (SGU) (SGU) (SGU) (PIU) (PIU)
 Keep R1 ints in memory in symmetry-blocked form, NReq=867963.
 Requested convergence on RMS density matrix=1.00D-08 within 128 cycles.
 Requested convergence on MAX density matrix=1.00D-06.
 Requested convergence on             energy=1.00D-06.
 No special actions if energy rises.
 SCF Done:  E(RHF) =  -76.7952464940     A.U. after    6 cycles
            NFock=  6  Conv=0.77D-08     -V/T= 2.0030
 ExpMin= 1.15D-01 ExpMax= 4.23D+03 ExpMxC= 1.46D+02 IAcc=3 IRadAn=         5 AccDes= 0.00D+00
 HarFok:  IExCor=  205 AccDes= 0.00D+00 IRadAn=         5 IDoV=-2 UseB2=F ITyADJ=14
 ICtDFT= 12500011 ScaDFX=  1.000000  1.000000  1.000000  1.000000
 Range of M.O.s used for correlation:     3    22
 NBasis=    22 NAE=     7 NBE=     7 NFC=     2 NFV=     0
 NROrb=     20 NOA=     5 NOB=     5 NVA=    15 NVB=    15
 Semi-Direct transformation.
 ModeAB=           4 MOrb=             5 LenV=      33430719
 LASXX=         2380 LTotXX=        2380 LenRXX=        5278
 LTotAB=        2898 MaxLAS=       14400 LenRXY=           0
 NonZer=        7658 LenScr=      785920 LnRSAI=       14400
 LnScr1=      785920 LExtra=           0 Total=      1591518
 MaxDsk=          -1 SrtSym=           T ITran=            4
 JobTyp=0 Pass  1:  I=   1 to   5.
 (rs|ai) integrals will be sorted in core.
 Spin components of T(2) and E(2):
     alpha-alpha T2 =       0.1132708860D-01 E2=     -0.2168317428D-01
     alpha-beta  T2 =       0.7079438081D-01 E2=     -0.1393238214D+00
     beta-beta   T2 =       0.1132708860D-01 E2=     -0.2168317428D-01
 ANorm=    0.1045680906D+01
 E2 =    -0.1826901699D+00 EUMP2 =    -0.76977936663963D+02
 Keep R2 and R3 ints in memory in symmetry-blocked form, NReq=835181.
 Iterations=  50 Convergence= 0.100D-07
 Iteration Nr.   1
 **********************
 DD1Dir will call FoFMem   1 times, MxPair=        30
 NAB=    15 NAA=     0 NBB=     0.
 MP4(R+Q)=  0.12656129D-02
 E3=       -0.28220035D-02        EUMP3=      -0.76980758667D+02
 E4(DQ)=   -0.60400558D-02        UMP4(DQ)=   -0.76986798723D+02
 E4(SDQ)=  -0.76115112D-02        UMP4(SDQ)=  -0.76988370179D+02
 DE(Corr)= -0.18416475     E(Corr)=     -76.979411248    
 NORM(A)=   0.10481199D+01
 Iteration Nr.   2
 **********************
 DD1Dir will call FoFMem   1 times, MxPair=        30
 NAB=    15 NAA=     0 NBB=     0.
 DE(Corr)= -0.19128320     E(CORR)=     -76.986529691     Delta=-7.12D-03
 NORM(A)=   0.10560736D+01
 Iteration Nr.   3
 **********************
 DD1Dir will call FoFMem   1 times, MxPair=        30
 NAB=    15 NAA=     0 NBB=     0.
 DE(Corr)= -0.19448188     E(CORR)=     -76.989728371     Delta=-3.20D-03
 NORM(A)=   0.10587346D+01
 Iteration Nr.   4
 **********************
 DD1Dir will call FoFMem   1 times, MxPair=        30
 NAB=    15 NAA=     0 NBB=     0.
 DE(Corr)= -0.19579762     E(CORR)=     -76.991044116     Delta=-1.32D-03
 NORM(A)=   0.10594983D+01
 Iteration Nr.   5
 **********************
 DD1Dir will call FoFMem   1 times, MxPair=        30
 NAB=    15 NAA=     0 NBB=     0.
 DE(Corr)= -0.19600828     E(CORR)=     -76.991254775     Delta=-2.11D-04
 NORM(A)=   0.10595498D+01
 Iteration Nr.   6
 **********************
 DD1Dir will call FoFMem   1 times, MxPair=        30
 NAB=    15 NAA=     0 NBB=     0.
 DE(Corr)= -0.19601645     E(CORR)=     -76.991262947     Delta=-8.17D-06
 NORM(A)=   0.10595544D+01
 Iteration Nr.   7
 **********************
 DD1Dir will call FoFMem   1 times, MxPair=        30
 NAB=    15 NAA=     0 NBB=     0.
 DE(Corr)= -0.19601693     E(CORR)=     -76.991263421     Delta=-4.74D-07
 NORM(A)=   0.10595569D+01
 Iteration Nr.   8
 **********************
 DD1Dir will call FoFMem   1 times, MxPair=        30
 NAB=    15 NAA=     0 NBB=     0.
 DE(Corr)= -0.19601727     E(CORR)=     -76.991263761     Delta=-3.39D-07
 NORM(A)=   0.10595566D+01
 Iteration Nr.   9
 **********************
 DD1Dir will call FoFMem   1 times, MxPair=        30
 NAB=    15 NAA=     0 NBB=     0.
 DE(Corr)= -0.19601738     E(CORR)=     -76.991263874     Delta=-1.14D-07
 NORM(A)=   0.10595566D+01
 Iteration Nr.  10
 **********************
 DD1Dir will call FoFMem   1 times, MxPair=        30
 NAB=    15 NAA=     0 NBB=     0.
 DE(Corr)= -0.19601733     E(CORR)=     -76.991263819     Delta= 5.50D-08
 NORM(A)=   0.10595565D+01
 Iteration Nr.  11
 **********************
 DD1Dir will call FoFMem   1 times, MxPair=        30
 NAB=    15 NAA=     0 NBB=     0.
 DE(Corr)= -0.19601730     E(CORR)=     -76.991263791     Delta= 2.78D-08
 NORM(A)=   0.10595565D+01
 Iteration Nr.  12
 **********************
 DD1Dir will call FoFMem   1 times, MxPair=        30
 NAB=    15 NAA=     0 NBB=     0.
 DE(Corr)= -0.19601728     E(CORR)=     -76.991263776     Delta= 1.51D-08
 NORM(A)=   0.10595565D+01
 Iteration Nr.  13
 **********************
 DD1Dir will call FoFMem   1 times, MxPair=        30
 NAB=    15 NAA=     0 NBB=     0.
 DE(Corr)= -0.19601728     E(CORR)=     -76.991263770     Delta= 6.53D-09
 NORM(A)=   0.10595565D+01
 Dominant configurations:
 ***********************
 Spin Case        I    J    A    B          Value
   ABAB           6    6    8    8      -0.106202D+00
   ABAB           7    7    9    9      -0.106202D+00
 Largest amplitude= 1.06D-01

 Z-AMPLITUDE ITERATIONS

 Iteration Nr.   1
 **********************
 DD1Dir will call FoFMem   1 times, MxPair=        30
 NAB=    15 NAA=     0 NBB=     0.
 DE(Z)  -0.19153172D+00          E(Z)=    -0.76986778219D+02
 NORM(A)=   0.10595565D+01
 Iteration Nr.   2
 **********************
 DD1Dir will call FoFMem   1 times, MxPair=        30
 NAB=    15 NAA=     0 NBB=     0.
 DE(Z)  -0.19153172D+00          E(Z)=    -0.76986778213D+02
 NORM(A)=   0.10595565D+01
 Iteration Nr.   3
 **********************
 DD1Dir will call FoFMem   1 times, MxPair=        30
 NAB=    15 NAA=     0 NBB=     0.
 DE(Z)  -0.19153173D+00          E(Z)=    -0.76986778223D+02
 NORM(A)=   0.10595564D+01
 Iteration Nr.   4
 **********************
 DD1Dir will call FoFMem   1 times, MxPair=        30
 NAB=    15 NAA=     0 NBB=     0.
 DE(Z)  -0.19153171D+00          E(Z)=    -0.76986778203D+02
 NORM(A)=   0.10595564D+01
 Iteration Nr.   5
 **********************
 DD1Dir will call FoFMem   1 times, MxPair=        30
 NAB=    15 NAA=     0 NBB=     0.
 DE(Z)  -0.19153171D+00          E(Z)=    -0.76986778208D+02
 NORM(A)=   0.10558865D+01
 Iteration Nr.   6
 **********************
 DD1Dir will call FoFMem   1 times, MxPair=        30
 NAB=    15 NAA=     0 NBB=     0.
 DE(Z)  -0.19097932D+00          E(Z)=    -0.76986225813D+02
 NORM(A)=   0.10554957D+01
 Iteration Nr.   7
 **********************
 DD1Dir will call FoFMem   1 times, MxPair=        30
 NAB=    15 NAA=     0 NBB=     0.
 DE(Z)  -0.19088441D+00          E(Z)=    -0.76986130901D+02
 NORM(A)=   0.10560082D+01
 Iteration Nr.   8
 **********************
 DD1Dir will call FoFMem   1 times, MxPair=        30
 NAB=    15 NAA=     0 NBB=     0.
 DE(Z)  -0.19100750D+00          E(Z)=    -0.76986253997D+02
 NORM(A)=   0.10560110D+01
 Iteration Nr.   9
 **********************
 DD1Dir will call FoFMem   1 times, MxPair=        30
 NAB=    15 NAA=     0 NBB=     0.
 DE(Z)  -0.19100810D+00          E(Z)=    -0.76986254591D+02
 NORM(A)=   0.10560114D+01
 Iteration Nr.  10
 **********************
 DD1Dir will call FoFMem   1 times, MxPair=        30
 NAB=    15 NAA=     0 NBB=     0.
 DE(Z)  -0.19100814D+00          E(Z)=    -0.76986254629D+02
 NORM(A)=   0.10560115D+01
 Iteration Nr.  11
 **********************
 DD1Dir will call FoFMem   1 times, MxPair=        30
 NAB=    15 NAA=     0 NBB=     0.
 DE(Z)  -0.19100816D+00          E(Z)=    -0.76986254653D+02
 NORM(A)=   0.10560114D+01
 Iteration Nr.  12
 **********************
 DD1Dir will call FoFMem   1 times, MxPair=        30
 NAB=    15 NAA=     0 NBB=     0.
 DE(Z)  -0.19100816D+00          E(Z)=    -0.76986254654D+02
 NORM(A)=   0.10560114D+01
 Discarding MO integrals.
          IDoAtm=1111
          Differentiating once with respect to electric field.
                with respect to dipole field.
          Differentiating once with respect to nuclear coordinates.
 Keep R1 ints in memory in symmetry-blocked form, NReq=853810.
          There are     1 degrees of freedom in the 1st order CPHF.  IDoFFX=0 NUNeed=     1.
 LinEq1:  Iter=  0 NonCon=     1 RMS=8.79D-03 Max=5.96D-02 NDo=     1
 AX will form     1 AO Fock derivatives at one time.
 LinEq1:  Iter=  1 NonCon=     1 RMS=2.11D-03 Max=1.61D-02 NDo=     1
 LinEq1:  Iter=  2 NonCon=     1 RMS=1.98D-04 Max=1.29D-03 NDo=     1
 LinEq1:  Iter=  3 NonCon=     1 RMS=7.45D-06 Max=3.57D-05 NDo=     1
 LinEq1:  Iter=  4 NonCon=     1 RMS=3.41D-07 Max=1.59D-06 NDo=     1
 LinEq1:  Iter=  5 NonCon=     1 RMS=2.79D-08 Max=1.43D-07 NDo=     1
 LinEq1:  Iter=  6 NonCon=     1 RMS=1.59D-09 Max=7.62D-09 NDo=     1
 LinEq1:  Iter=  7 NonCon=     0 RMS=8.87D-11 Max=5.89D-10 NDo=     1
 Linear equations converged to 1.000D-10 1.000D-09 after     7 iterations.
 End of Minotr F.D. properties file   721 does not exist.
 End of Minotr F.D. properties file   722 does not exist.
 End of Minotr F.D. properties file   788 does not exist.
   8 Symmetry operations used in ECPInt.
 ECPInt:  NShTT=     105 NPrTT=     803 LenC2=     106 LenP2D=     735.
 LDataN:  DoStor=T MaxTD1= 3 Len=   28
 Calling FoFJK, ICntrl=  10002127 FMM=F ISym2X=1 I1Cent= 0 IOpClX= 0 NMat=1 NMatS=1 NMatT=0.
 ***** Axes restored to original set *****
 -------------------------------------------------------------------
 Center     Atomic                   Forces (Hartrees/Bohr)
 Number     Number              X              Y              Z
 -------------------------------------------------------------------
      1        6           0.000111767    0.000002080    0.000000000
      2        6          -0.000111767   -0.000002080    0.000000000
      3        1          -0.000049459   -0.000000921    0.000000000
      4        1           0.000049459    0.000000921    0.000000000
 -------------------------------------------------------------------
 Cartesian Forces:  Max     0.000111767 RMS     0.000049905

 GradGradGradGradGradGradGradGradGradGradGradGradGradGradGradGradGradGrad
 Berny optimization.
 Using GEDIIS/GDIIS optimizer.
 Internal  Forces:  Max     0.000062319 RMS     0.000035411
 Search for a local minimum.
 Step number   3 out of a maximum of   20
 All quantities printed in internal units (Hartrees-Bohrs-Radians)
 Mixed Optimization -- En-DIIS/RFO-DIIS
 Update second derivatives using D2CorX and points    1    2    3
 DE= -4.04D-06 DEPred=-3.68D-06 R= 1.10D+00
 TightC=F SS=  1.41D+00  RLast= 2.83D-03 DXNew= 5.0454D-01 8.4875D-03
 Trust test= 1.10D+00 RLast= 2.83D-03 DXMaxT set to 3.00D-01
 The second derivative matrix:
                          R1        R2        R3        A1        A2
           R1           0.98095
           R2          -0.01082   0.38643
           R3          -0.01082  -0.00094   0.38643
           A1           0.00000   0.00000   0.00000   0.00653
           A2           0.00000   0.00000   0.00000   0.00000   0.00653
           A3           0.00000   0.00000   0.00000   0.00000   0.00000
           A4           0.00000   0.00000   0.00000   0.00000   0.00000
                          A3        A4
           A3           0.00653
           A4           0.00000   0.00653
 ITU=  1  1  0
 Use linear search instead of GDIIS.
     Eigenvalues ---    0.00653   0.00653   0.00653   0.00653   0.38510
     Eigenvalues ---    0.38738   0.98134
 RFO step:  Lambda=-1.32776908D-08 EMin= 6.53060099D-03
 Quartic linear search produced a step of  0.01970.
 Iteration  1 RMS(Cart)=  0.00005402 RMS(Int)=  0.00000001
 Iteration  2 RMS(Cart)=  0.00000001 RMS(Int)=  0.00000001
 ClnCor:  largest displacement from symmetrization is 1.86D-08 for atom     2.
 Variable       Old X    -DE/DX   Delta X   Delta X   Delta X     New X
                                 (Linear)    (Quad)   (Total)
    R1        2.34215  -0.00006  -0.00006  -0.00001  -0.00006   2.34209
    R2        2.03227   0.00005   0.00000   0.00013   0.00013   2.03240
    R3        2.03227   0.00005   0.00000   0.00013   0.00013   2.03240
    A1        3.14159   0.00000   0.00000   0.00000   0.00000   3.14159
    A2        3.14159   0.00000   0.00000   0.00000   0.00000   3.14159
    A3        3.14159   0.00000   0.00000   0.00000   0.00000   3.14159
    A4        3.14159   0.00000   0.00000   0.00000   0.00000   3.14159
         Item               Value     Threshold  Converged?
 Maximum Force            0.000062     0.000450     YES
 RMS     Force            0.000035     0.000300     YES
 Maximum Displacement     0.000096     0.001800     YES
 RMS     Displacement     0.000054     0.001200     YES
 Predicted change in Energy=-8.155936D-09
 Optimization completed.
    -- Stationary point found.
                           ----------------------------
                           !   Optimized Parameters   !
                           ! (Angstroms and Degrees)  !
 --------------------------                            --------------------------
 ! Name  Definition              Value          Derivative Info.                !
 --------------------------------------------------------------------------------
 ! R1    R(1,2)                  1.2394         -DE/DX =   -0.0001              !
 ! R2    R(1,3)                  1.0754         -DE/DX =    0.0                 !
 ! R3    R(2,4)                  1.0754         -DE/DX =    0.0                 !
 ! A1    L(2,1,3,-3,-1)        180.0            -DE/DX =    0.0                 !
 ! A2    L(1,2,4,-3,-1)        180.0            -DE/DX =    0.0                 !
 ! A3    L(2,1,3,-2,-2)        180.0            -DE/DX =    0.0                 !
 ! A4    L(1,2,4,-2,-2)        180.0            -DE/DX =    0.0                 !
 --------------------------------------------------------------------------------
 GradGradGradGradGradGradGradGradGradGradGradGradGradGradGradGradGradGrad

                          Input orientation:                          
 ---------------------------------------------------------------------
 Center     Atomic      Atomic             Coordinates (Angstroms)
 Number     Number       Type             X           Y           Z
 ---------------------------------------------------------------------
      1          6           0       -8.462144    3.248794    0.000000
      2          6           0       -7.222946    3.271858    0.000000
      3          1           0       -9.537390    3.228781    0.000000
      4          1           0       -6.147700    3.291870    0.000000
 ---------------------------------------------------------------------
                    Distance matrix (angstroms):
                    1          2          3          4
     1  C    0.000000
     2  C    1.239412   0.000000
     3  H    1.075432   2.314844   0.000000
     4  H    2.314844   1.075432   3.390277   0.000000
 Stoichiometry    C2H2
 Framework group  D*H[C*(HC.CH)]
 Deg. of freedom     2
 Full point group                 D*H     NOp   8
 Largest Abelian subgroup         D2H     NOp   8
 Largest concise Abelian subgroup C2      NOp   2
                         Standard orientation:                         
 ---------------------------------------------------------------------
 Center     Atomic      Atomic             Coordinates (Angstroms)
 Number     Number       Type             X           Y           Z
 ---------------------------------------------------------------------
      1          6           0        0.000000    0.000000   -0.619706
      2          6           0        0.000000    0.000000    0.619706
      3          1           0        0.000000    0.000000   -1.695138
      4          1           0        0.000000    0.000000    1.695138
 ---------------------------------------------------------------------
 Rotational constants (GHZ):      0.0000000     33.6721514     33.6721514

 **********************************************************************

            Population analysis using the SCF density.

 **********************************************************************

 Orbital symmetries:
       Occupied  (SGG) (SGU) (SGG) (SGU) (SGG) (PIU) (PIU)
       Virtual   (PIG) (PIG) (SGU) (SGG) (SGU) (PIU) (PIU) (SGG)
                 (PIG) (PIG) (SGG) (SGU) (SGU) (SGG) (SGU)
 The electronic state is 1-SGG.
 Alpha  occ. eigenvalues --  -11.27070 -11.26773  -1.03021  -0.76490  -0.67703
 Alpha  occ. eigenvalues --   -0.40632  -0.40632
 Alpha virt. eigenvalues --    0.16590   0.16590   0.23502   0.34323   0.34988
 Alpha virt. eigenvalues --    0.46848   0.46848   0.60981   0.62283   0.62283
 Alpha virt. eigenvalues --    0.65366   1.06409   1.23528   1.48564   1.72874
          Condensed to atoms (all electrons):
               1          2          3          4
     1  C    4.950314   0.959608   0.373070  -0.019222
     2  C    0.959608   4.950314  -0.019222   0.373070
     3  H    0.373070  -0.019222   0.382158   0.000223
     4  H   -0.019222   0.373070   0.000223   0.382158
 Mulliken charges:
               1
     1  C   -0.263771
     2  C   -0.263771
     3  H    0.263771
     4  H    0.263771
 Sum of Mulliken charges =   0.00000
 Mulliken charges with hydrogens summed into heavy atoms:
               1
     1  C    0.000000
     2  C    0.000000
 Electronic spatial extent (au):  <R**2>=             63.0031
 Charge=              0.0000 electrons
 Dipole moment (field-independent basis, Debye):
    X=              0.0000    Y=              0.0000    Z=              0.0000  Tot=              0.0000
 Quadrupole moment (field-independent basis, Debye-Ang):
   XX=            -14.1982   YY=            -14.1982   ZZ=             -6.6058
   XY=              0.0000   XZ=              0.0000   YZ=              0.0000
 Traceless Quadrupole moment (field-independent basis, Debye-Ang):
   XX=             -2.5308   YY=             -2.5308   ZZ=              5.0616
   XY=              0.0000   XZ=              0.0000   YZ=              0.0000
 Octapole moment (field-independent basis, Debye-Ang**2):
  XXX=              0.0000  YYY=              0.0000  ZZZ=              0.0000  XYY=              0.0000
  XXY=              0.0000  XXZ=              0.0000  XZZ=              0.0000  YZZ=              0.0000
  YYZ=              0.0000  XYZ=              0.0000
 Hexadecapole moment (field-independent basis, Debye-Ang**3):
 XXXX=            -17.1782 YYYY=            -17.1782 ZZZZ=            -35.8282 XXXY=              0.0000
 XXXZ=              0.0000 YYYX=              0.0000 YYYZ=              0.0000 ZZZX=              0.0000
 ZZZY=              0.0000 XXYY=             -5.7261 XXZZ=            -12.9231 YYZZ=            -12.9231
 XXYZ=              0.0000 YYXZ=              0.0000 ZZXY=              0.0000
 N-N= 2.417452269216D+01 E-N=-2.268553320499D+02  KE= 7.656219945282D+01
 Symmetry AG   KE= 3.784964744443D+01
 Symmetry B1G  KE= 0.000000000000D+00
 Symmetry B2G  KE= 4.981453015629D-34
 Symmetry B3G  KE= 6.079687770937D-33
 Symmetry AU   KE= 0.000000000000D+00
 Symmetry B1U  KE= 3.454734765216D+01
 Symmetry B2U  KE= 2.082602178118D+00
 Symmetry B3U  KE= 2.082602178118D+00
 1\1\GINC-N0287\FOpt\RCCSD-FC\LANL2DZ\C2H2\GDAVIDS3\21-Feb-2017\0\\#n C
 CSD/LANL2DZ Opt\\Ethyne CCSD LANL2DZ\\0,1\C,-8.4621437137,3.2487937487
 ,0.\C,-7.2229462863,3.2718576799,0.\H,-9.537389935,3.2287812758,0.\H,-
 6.147700065,3.2918701528,0.\\Version=ES64L-G09RevE.01\State=1-SGG\HF=-
 76.7952465\MP2=-76.9779367\MP3=-76.9807587\MP4D=-76.9880643\MP4DQ=-76.
 9867987\MP4SDQ=-76.9883702\CCSD=-76.9912638\RMSD=7.679e-09\RMSF=4.991e
 -05\Dipole=0.,0.,0.\PG=D*H [C*(H1C1.C1H1)]\\@


 One man practicing sportsmanship is far better than 50 preaching it.
 -- Knute K. Rockne
 Job cpu time:       0 days  0 hours  1 minutes 29.6 seconds.
 File lengths (MBytes):  RWF=     18 Int=      0 D2E=      0 Chk=      1 Scr=      1
 Normal termination of Gaussian 09 at Tue Feb 21 19:12:14 2017.
