 Entering Gaussian System, Link 0=g09
 Input=BMI_MTS_4.com
 Output=BMI_MTS_4.log
 Initial command:
 /gscratch/pfaendtner/codes/G09/g09/l1.exe /gscratch/pfaendtner/wesley/gaussian/Gau-30598.inp -scrdir=/gscratch/pfaendtner/wesley/gaussian/
 Entering Link 1 = /gscratch/pfaendtner/codes/G09/g09/l1.exe PID=     30608.
  
 Copyright (c) 1988,1990,1992,1993,1995,1998,2003,2009, Gaussian, Inc.
                  All Rights Reserved.
  
 This is part of the Gaussian(R) 09 program.  It is based on
 the Gaussian(R) 03 system (copyright 2003, Gaussian, Inc.),
 the Gaussian(R) 98 system (copyright 1998, Gaussian, Inc.),
 the Gaussian(R) 94 system (copyright 1995, Gaussian, Inc.),
 the Gaussian 92(TM) system (copyright 1992, Gaussian, Inc.),
 the Gaussian 90(TM) system (copyright 1990, Gaussian, Inc.),
 the Gaussian 88(TM) system (copyright 1988, Gaussian, Inc.),
 the Gaussian 86(TM) system (copyright 1986, Carnegie Mellon
 University), and the Gaussian 82(TM) system (copyright 1983,
 Carnegie Mellon University). Gaussian is a federally registered
 trademark of Gaussian, Inc.
  
 This software contains proprietary and confidential information,
 including trade secrets, belonging to Gaussian, Inc.
  
 This software is provided under written license and may be
 used, copied, transmitted, or stored only in accord with that
 written license.
  
 The following legend is applicable only to US Government
 contracts under FAR:
  
                    RESTRICTED RIGHTS LEGEND
  
 Use, reproduction and disclosure by the US Government is
 subject to restrictions as set forth in subparagraphs (a)
 and (c) of the Commercial Computer Software - Restricted
 Rights clause in FAR 52.227-19.
  
 Gaussian, Inc.
 340 Quinnipiac St., Bldg. 40, Wallingford CT 06492
  
  
 ---------------------------------------------------------------
 Warning -- This program may not be used in any manner that
 competes with the business of Gaussian, Inc. or will provide
 assistance to any competitor of Gaussian, Inc.  The licensee
 of this program is prohibited from giving any competitor of
 Gaussian, Inc. access to this program.  By using this program,
 the user acknowledges that Gaussian, Inc. is engaged in the
 business of creating and licensing software in the field of
 computational chemistry and represents and warrants to the
 licensee that it is not a competitor of Gaussian, Inc. and that
 it will not use this program in any manner prohibited above.
 ---------------------------------------------------------------
  

 Cite this work as:
 Gaussian 09, Revision A.02,
 M. J. Frisch, G. W. Trucks, H. B. Schlegel, G. E. Scuseria, 
 M. A. Robb, J. R. Cheeseman, G. Scalmani, V. Barone, B. Mennucci, 
 G. A. Petersson, H. Nakatsuji, M. Caricato, X. Li, H. P. Hratchian, 
 A. F. Izmaylov, J. Bloino, G. Zheng, J. L. Sonnenberg, M. Hada, 
 M. Ehara, K. Toyota, R. Fukuda, J. Hasegawa, M. Ishida, T. Nakajima, 
 Y. Honda, O. Kitao, H. Nakai, T. Vreven, J. A. Montgomery, Jr., 
 J. E. Peralta, F. Ogliaro, M. Bearpark, J. J. Heyd, E. Brothers, 
 K. N. Kudin, V. N. Staroverov, R. Kobayashi, J. Normand, 
 K. Raghavachari, A. Rendell, J. C. Burant, S. S. Iyengar, J. Tomasi, 
 M. Cossi, N. Rega, J. M. Millam, M. Klene, J. E. Knox, J. B. Cross, 
 V. Bakken, C. Adamo, J. Jaramillo, R. Gomperts, R. E. Stratmann, 
 O. Yazyev, A. J. Austin, R. Cammi, C. Pomelli, J. W. Ochterski, 
 R. L. Martin, K. Morokuma, V. G. Zakrzewski, G. A. Voth, 
 P. Salvador, J. J. Dannenberg, S. Dapprich, A. D. Daniels, 
 O. Farkas, J. B. Foresman, J. V. Ortiz, J. Cioslowski, 
 and D. J. Fox, Gaussian, Inc., Wallingford CT, 2009.
 
 ******************************************
 Gaussian 09:  EM64L-G09RevA.02 11-Jun-2009
                13-Mar-2017 
 ******************************************
 %chk=BMI_MTS_4.chk
 %nprocshared=2
 Will use up to    2 processors via shared memory.
 --------------------------------------
 # opt M062X/6-311+G* geom=connectivity
 --------------------------------------
 1/14=-1,18=20,19=15,26=3,38=1,57=2/1,3;
 2/9=110,12=2,17=6,18=5,40=1/2;
 3/5=4,6=6,7=11,11=2,16=1,25=1,30=1,71=1,74=-55/1,2,3;
 4//1;
 5/5=2,38=5/2;
 6/7=2,8=2,9=2,10=2,28=1/1;
 7//1,2,3,16;
 1/14=-1,18=20,19=15/3(2);
 2/9=110/2;
 99//99;
 2/9=110/2;
 3/5=4,6=6,7=11,11=2,16=1,25=1,30=1,71=1,74=-55/1,2,3;
 4/5=5,16=3/1;
 5/5=2,38=5/2;
 7//1,2,3,16;
 1/14=-1,18=20,19=15/3(-5);
 2/9=110/2;
 6/7=2,8=2,9=2,10=2,19=2,28=1/1;
 99/9=1/99;
 -------------------
 Title Card Required
 -------------------
 Symbolic Z-matrix:
 Charge =  0 Multiplicity = 1
 C                    -1.12041  -2.97501   0.32283 
 C                     0.13975  -2.93333   0.79161 
 C                    -0.92352  -1.24888   1.57011 
 N                    -1.75732  -1.91457   0.82427 
 H                    -1.53356  -3.71697  -0.32809 
 H                     0.91983  -3.63584   0.58456 
 H                    -1.15182  -0.3501    2.10394 
 N                     0.23178  -1.84879   1.56421 
 C                     1.43372  -1.40682   2.28594 
 H                     2.0263   -2.25859   2.54714 
 H                     2.00505  -0.75307   1.66057 
 H                     1.14469  -0.88708   3.17546 
 C                    -3.16191  -1.55879   0.57638 
 H                    -3.27488  -0.49597   0.62685 
 H                    -3.45082  -1.90246  -0.39487 
 C                    -4.05496  -2.22112   1.64191 
 H                    -3.94199  -3.28394   1.59144 
 H                    -3.76605  -1.87746   2.61316 
 C                    -5.52644  -1.8484    1.38222 
 H                    -5.63942  -0.78558   1.43269 
 H                    -5.81535  -2.19207   0.41097 
 C                    -6.4195   -2.51074   2.44775 
 H                    -6.13059  -2.16707   3.419 
 H                    -7.44189  -2.25177   2.26731 
 H                    -6.30652  -3.57356   2.39728 
 S                     2.07522  -3.81377   1.339 
 O                     2.05022  -5.27434   1.49979 
 O                     2.72399  -3.47219   0.06537 
 O                     0.69948  -3.29699   1.34206 
 O                     2.92972  -3.12946   2.60013 
 C                     4.26839  -3.63231   2.59715 
 H                     4.74075  -3.38361   1.66983 
 H                     4.81589  -3.19386   3.40517 
 H                     4.25019  -4.69573   2.71422 
 

 GradGradGradGradGradGradGradGradGradGradGradGradGradGradGradGradGradGrad
 Berny optimization.
 Initialization pass.
                           ----------------------------
                           !    Initial Parameters    !
                           ! (Angstroms and Degrees)  !
 --------------------------                            --------------------------
 ! Name  Definition              Value          Derivative Info.                !
 --------------------------------------------------------------------------------
 ! R1    R(1,2)                  1.3452         estimate D2E/DX2                !
 ! R2    R(1,4)                  1.3348         estimate D2E/DX2                !
 ! R3    R(1,5)                  1.07           estimate D2E/DX2                !
 ! R4    R(2,6)                  1.07           estimate D2E/DX2                !
 ! R5    R(2,8)                  1.3348         estimate D2E/DX2                !
 ! R6    R(2,29)                 0.8652         estimate D2E/DX2                !
 ! R7    R(3,4)                  1.3018         estimate D2E/DX2                !
 ! R8    R(3,7)                  1.07           estimate D2E/DX2                !
 ! R9    R(3,8)                  1.3018         estimate D2E/DX2                !
 ! R10   R(4,13)                 1.47           estimate D2E/DX2                !
 ! R11   R(6,26)                 1.3913         estimate D2E/DX2                !
 ! R12   R(6,29)                 0.8586         estimate D2E/DX2                !
 ! R13   R(8,9)                  1.47           estimate D2E/DX2                !
 ! R14   R(8,29)                 1.538          estimate D2E/DX2                !
 ! R15   R(9,10)                 1.07           estimate D2E/DX2                !
 ! R16   R(9,11)                 1.07           estimate D2E/DX2                !
 ! R17   R(9,12)                 1.07           estimate D2E/DX2                !
 ! R18   R(10,30)                1.2559         estimate D2E/DX2                !
 ! R19   R(13,14)                1.07           estimate D2E/DX2                !
 ! R20   R(13,15)                1.07           estimate D2E/DX2                !
 ! R21   R(13,16)                1.54           estimate D2E/DX2                !
 ! R22   R(16,17)                1.07           estimate D2E/DX2                !
 ! R23   R(16,18)                1.07           estimate D2E/DX2                !
 ! R24   R(16,19)                1.54           estimate D2E/DX2                !
 ! R25   R(19,20)                1.07           estimate D2E/DX2                !
 ! R26   R(19,21)                1.07           estimate D2E/DX2                !
 ! R27   R(19,22)                1.54           estimate D2E/DX2                !
 ! R28   R(22,23)                1.07           estimate D2E/DX2                !
 ! R29   R(22,24)                1.07           estimate D2E/DX2                !
 ! R30   R(22,25)                1.07           estimate D2E/DX2                !
 ! R31   R(26,27)                1.4696         estimate D2E/DX2                !
 ! R32   R(26,28)                1.4696         estimate D2E/DX2                !
 ! R33   R(26,29)                1.4696         estimate D2E/DX2                !
 ! R34   R(26,30)                1.67           estimate D2E/DX2                !
 ! R35   R(30,31)                1.43           estimate D2E/DX2                !
 ! R36   R(31,32)                1.07           estimate D2E/DX2                !
 ! R37   R(31,33)                1.07           estimate D2E/DX2                !
 ! R38   R(31,34)                1.07           estimate D2E/DX2                !
 ! A1    A(2,1,4)              106.9463         estimate D2E/DX2                !
 ! A2    A(2,1,5)              126.5268         estimate D2E/DX2                !
 ! A3    A(4,1,5)              126.5268         estimate D2E/DX2                !
 ! A4    A(1,2,6)              126.5268         estimate D2E/DX2                !
 ! A5    A(1,2,8)              106.9463         estimate D2E/DX2                !
 ! A6    A(1,2,29)             144.5635         estimate D2E/DX2                !
 ! A7    A(6,2,8)              126.5268         estimate D2E/DX2                !
 ! A8    A(4,3,7)              125.3602         estimate D2E/DX2                !
 ! A9    A(4,3,8)              109.2797         estimate D2E/DX2                !
 ! A10   A(7,3,8)              125.3602         estimate D2E/DX2                !
 ! A11   A(1,4,3)              108.4138         estimate D2E/DX2                !
 ! A12   A(1,4,13)             125.7931         estimate D2E/DX2                !
 ! A13   A(3,4,13)             125.7931         estimate D2E/DX2                !
 ! A14   A(2,6,26)             125.7649         estimate D2E/DX2                !
 ! A15   A(2,8,3)              108.4138         estimate D2E/DX2                !
 ! A16   A(2,8,9)              125.7931         estimate D2E/DX2                !
 ! A17   A(3,8,9)              125.7931         estimate D2E/DX2                !
 ! A18   A(3,8,29)             134.7871         estimate D2E/DX2                !
 ! A19   A(9,8,29)              96.049          estimate D2E/DX2                !
 ! A20   A(8,9,10)             109.4712         estimate D2E/DX2                !
 ! A21   A(8,9,11)             109.4712         estimate D2E/DX2                !
 ! A22   A(8,9,12)             109.4712         estimate D2E/DX2                !
 ! A23   A(10,9,11)            109.4712         estimate D2E/DX2                !
 ! A24   A(10,9,12)            109.4712         estimate D2E/DX2                !
 ! A25   A(11,9,12)            109.4712         estimate D2E/DX2                !
 ! A26   A(4,13,14)            109.4712         estimate D2E/DX2                !
 ! A27   A(4,13,15)            109.4712         estimate D2E/DX2                !
 ! A28   A(4,13,16)            109.4712         estimate D2E/DX2                !
 ! A29   A(14,13,15)           109.4712         estimate D2E/DX2                !
 ! A30   A(14,13,16)           109.4712         estimate D2E/DX2                !
 ! A31   A(15,13,16)           109.4712         estimate D2E/DX2                !
 ! A32   A(13,16,17)           109.4712         estimate D2E/DX2                !
 ! A33   A(13,16,18)           109.4712         estimate D2E/DX2                !
 ! A34   A(13,16,19)           109.4712         estimate D2E/DX2                !
 ! A35   A(17,16,18)           109.4712         estimate D2E/DX2                !
 ! A36   A(17,16,19)           109.4712         estimate D2E/DX2                !
 ! A37   A(18,16,19)           109.4712         estimate D2E/DX2                !
 ! A38   A(16,19,20)           109.4712         estimate D2E/DX2                !
 ! A39   A(16,19,21)           109.4712         estimate D2E/DX2                !
 ! A40   A(16,19,22)           109.4712         estimate D2E/DX2                !
 ! A41   A(20,19,21)           109.4712         estimate D2E/DX2                !
 ! A42   A(20,19,22)           109.4712         estimate D2E/DX2                !
 ! A43   A(21,19,22)           109.4712         estimate D2E/DX2                !
 ! A44   A(19,22,23)           109.4712         estimate D2E/DX2                !
 ! A45   A(19,22,24)           109.4712         estimate D2E/DX2                !
 ! A46   A(19,22,25)           109.4712         estimate D2E/DX2                !
 ! A47   A(23,22,24)           109.4712         estimate D2E/DX2                !
 ! A48   A(23,22,25)           109.4712         estimate D2E/DX2                !
 ! A49   A(24,22,25)           109.4712         estimate D2E/DX2                !
 ! A50   A(6,26,27)             99.9219         estimate D2E/DX2                !
 ! A51   A(6,26,28)             82.353          estimate D2E/DX2                !
 ! A52   A(6,26,30)            141.4436         estimate D2E/DX2                !
 ! A53   A(27,26,28)           109.4712         estimate D2E/DX2                !
 ! A54   A(27,26,29)           109.4712         estimate D2E/DX2                !
 ! A55   A(27,26,30)           109.4712         estimate D2E/DX2                !
 ! A56   A(28,26,29)           109.4712         estimate D2E/DX2                !
 ! A57   A(28,26,30)           109.4712         estimate D2E/DX2                !
 ! A58   A(29,26,30)           109.4712         estimate D2E/DX2                !
 ! A59   A(2,29,26)            138.7734         estimate D2E/DX2                !
 ! A60   A(6,29,8)             125.2463         estimate D2E/DX2                !
 ! A61   A(8,29,26)            128.0319         estimate D2E/DX2                !
 ! A62   A(26,30,31)           109.4712         estimate D2E/DX2                !
 ! A63   A(30,31,32)           109.4712         estimate D2E/DX2                !
 ! A64   A(30,31,33)           109.4712         estimate D2E/DX2                !
 ! A65   A(30,31,34)           109.4712         estimate D2E/DX2                !
 ! A66   A(32,31,33)           109.4712         estimate D2E/DX2                !
 ! A67   A(32,31,34)           109.4712         estimate D2E/DX2                !
 ! A68   A(33,31,34)           109.4712         estimate D2E/DX2                !
 ! D1    D(4,1,2,6)           -179.9998         estimate D2E/DX2                !
 ! D2    D(4,1,2,8)              0.0            estimate D2E/DX2                !
 ! D3    D(4,1,2,29)           107.4304         estimate D2E/DX2                !
 ! D4    D(5,1,2,6)              0.0            estimate D2E/DX2                !
 ! D5    D(5,1,2,8)            179.9998         estimate D2E/DX2                !
 ! D6    D(5,1,2,29)           -72.5699         estimate D2E/DX2                !
 ! D7    D(2,1,4,3)              0.0            estimate D2E/DX2                !
 ! D8    D(2,1,4,13)          -180.0            estimate D2E/DX2                !
 ! D9    D(5,1,4,3)           -179.9998         estimate D2E/DX2                !
 ! D10   D(5,1,4,13)             0.0002         estimate D2E/DX2                !
 ! D11   D(1,2,6,26)          -160.6159         estimate D2E/DX2                !
 ! D12   D(8,2,6,26)            19.3844         estimate D2E/DX2                !
 ! D13   D(1,2,8,3)              0.0            estimate D2E/DX2                !
 ! D14   D(1,2,8,9)            180.0            estimate D2E/DX2                !
 ! D15   D(6,2,8,3)            179.9998         estimate D2E/DX2                !
 ! D16   D(6,2,8,9)             -0.0002         estimate D2E/DX2                !
 ! D17   D(1,2,29,26)          131.3733         estimate D2E/DX2                !
 ! D18   D(7,3,4,1)            179.9998         estimate D2E/DX2                !
 ! D19   D(7,3,4,13)            -0.0002         estimate D2E/DX2                !
 ! D20   D(8,3,4,1)              0.0            estimate D2E/DX2                !
 ! D21   D(8,3,4,13)           180.0            estimate D2E/DX2                !
 ! D22   D(4,3,8,2)              0.0            estimate D2E/DX2                !
 ! D23   D(4,3,8,9)           -180.0            estimate D2E/DX2                !
 ! D24   D(4,3,8,29)           -26.0057         estimate D2E/DX2                !
 ! D25   D(7,3,8,2)           -179.9998         estimate D2E/DX2                !
 ! D26   D(7,3,8,9)              0.0002         estimate D2E/DX2                !
 ! D27   D(7,3,8,29)           153.9945         estimate D2E/DX2                !
 ! D28   D(1,4,13,14)         -150.0            estimate D2E/DX2                !
 ! D29   D(1,4,13,15)          -30.0            estimate D2E/DX2                !
 ! D30   D(1,4,13,16)           90.0            estimate D2E/DX2                !
 ! D31   D(3,4,13,14)           30.0            estimate D2E/DX2                !
 ! D32   D(3,4,13,15)          150.0            estimate D2E/DX2                !
 ! D33   D(3,4,13,16)          -90.0            estimate D2E/DX2                !
 ! D34   D(2,6,26,27)          130.4183         estimate D2E/DX2                !
 ! D35   D(2,6,26,28)         -121.0429         estimate D2E/DX2                !
 ! D36   D(2,6,26,30)           -9.2565         estimate D2E/DX2                !
 ! D37   D(2,8,9,10)           -30.0            estimate D2E/DX2                !
 ! D38   D(2,8,9,11)            90.0            estimate D2E/DX2                !
 ! D39   D(2,8,9,12)          -150.0            estimate D2E/DX2                !
 ! D40   D(3,8,9,10)           150.0            estimate D2E/DX2                !
 ! D41   D(3,8,9,11)           -90.0            estimate D2E/DX2                !
 ! D42   D(3,8,9,12)            30.0            estimate D2E/DX2                !
 ! D43   D(29,8,9,10)          -11.7641         estimate D2E/DX2                !
 ! D44   D(29,8,9,11)          108.2359         estimate D2E/DX2                !
 ! D45   D(29,8,9,12)         -131.7641         estimate D2E/DX2                !
 ! D46   D(3,8,29,6)            90.6995         estimate D2E/DX2                !
 ! D47   D(3,8,29,26)          178.4443         estimate D2E/DX2                !
 ! D48   D(9,8,29,6)          -110.2559         estimate D2E/DX2                !
 ! D49   D(9,8,29,26)          -22.5112         estimate D2E/DX2                !
 ! D50   D(4,13,16,17)         -60.0            estimate D2E/DX2                !
 ! D51   D(4,13,16,18)          60.0            estimate D2E/DX2                !
 ! D52   D(4,13,16,19)        -180.0            estimate D2E/DX2                !
 ! D53   D(14,13,16,17)       -180.0            estimate D2E/DX2                !
 ! D54   D(14,13,16,18)        -60.0            estimate D2E/DX2                !
 ! D55   D(14,13,16,19)         60.0            estimate D2E/DX2                !
 ! D56   D(15,13,16,17)         60.0            estimate D2E/DX2                !
 ! D57   D(15,13,16,18)       -180.0            estimate D2E/DX2                !
 ! D58   D(15,13,16,19)        -60.0            estimate D2E/DX2                !
 ! D59   D(13,16,19,20)        -60.0            estimate D2E/DX2                !
 ! D60   D(13,16,19,21)         60.0            estimate D2E/DX2                !
 ! D61   D(13,16,19,22)        180.0            estimate D2E/DX2                !
 ! D62   D(17,16,19,20)        180.0            estimate D2E/DX2                !
 ! D63   D(17,16,19,21)        -60.0            estimate D2E/DX2                !
 ! D64   D(17,16,19,22)         60.0            estimate D2E/DX2                !
 ! D65   D(18,16,19,20)         60.0            estimate D2E/DX2                !
 ! D66   D(18,16,19,21)        180.0            estimate D2E/DX2                !
 ! D67   D(18,16,19,22)        -60.0            estimate D2E/DX2                !
 ! D68   D(16,19,22,23)         60.0            estimate D2E/DX2                !
 ! D69   D(16,19,22,24)       -180.0            estimate D2E/DX2                !
 ! D70   D(16,19,22,25)        -60.0            estimate D2E/DX2                !
 ! D71   D(20,19,22,23)        -60.0            estimate D2E/DX2                !
 ! D72   D(20,19,22,24)         60.0            estimate D2E/DX2                !
 ! D73   D(20,19,22,25)        180.0            estimate D2E/DX2                !
 ! D74   D(21,19,22,23)        180.0            estimate D2E/DX2                !
 ! D75   D(21,19,22,24)        -60.0            estimate D2E/DX2                !
 ! D76   D(21,19,22,25)         60.0            estimate D2E/DX2                !
 ! D77   D(27,26,29,2)        -111.2934         estimate D2E/DX2                !
 ! D78   D(27,26,29,8)         162.8218         estimate D2E/DX2                !
 ! D79   D(28,26,29,2)           8.7066         estimate D2E/DX2                !
 ! D80   D(28,26,29,8)         -77.1782         estimate D2E/DX2                !
 ! D81   D(30,26,29,2)         128.7066         estimate D2E/DX2                !
 ! D82   D(30,26,29,8)          42.8218         estimate D2E/DX2                !
 ! D83   D(6,26,30,31)        -162.5407         estimate D2E/DX2                !
 ! D84   D(27,26,30,31)         60.0            estimate D2E/DX2                !
 ! D85   D(28,26,30,31)        -60.0            estimate D2E/DX2                !
 ! D86   D(29,26,30,31)       -180.0            estimate D2E/DX2                !
 ! D87   D(26,30,31,32)         60.0            estimate D2E/DX2                !
 ! D88   D(26,30,31,33)        180.0            estimate D2E/DX2                !
 ! D89   D(26,30,31,34)        -60.0            estimate D2E/DX2                !
 --------------------------------------------------------------------------------
 Trust Radius=3.00D-01 FncErr=1.00D-07 GrdErr=1.00D-06
 Number of steps in this run= 204 maximum allowed number of steps= 204.
 GradGradGradGradGradGradGradGradGradGradGradGradGradGradGradGradGradGrad

                          Input orientation:                          
 ---------------------------------------------------------------------
 Center     Atomic      Atomic             Coordinates (Angstroms)
 Number     Number       Type             X           Y           Z
 ---------------------------------------------------------------------
      1          6           0       -1.120410   -2.975007    0.322830
      2          6           0        0.139747   -2.933334    0.791606
      3          6           0       -0.923516   -1.248877    1.570105
      4          7           0       -1.757316   -1.914567    0.824274
      5          1           0       -1.533559   -3.716968   -0.328093
      6          1           0        0.919826   -3.635836    0.584561
      7          1           0       -1.151825   -0.350104    2.103943
      8          7           0        0.231776   -1.848789    1.564212
      9          6           0        1.433719   -1.406816    2.285942
     10          1           0        2.026299   -2.258593    2.547140
     11          1           0        2.005052   -0.753067    1.660571
     12          1           0        1.144688   -0.887080    3.175457
     13          6           0       -3.161906   -1.558791    0.576380
     14          1           0       -3.274882   -0.495970    0.626851
     15          1           0       -3.450816   -1.902455   -0.394870
     16          6           0       -4.054965   -2.221122    1.641914
     17          1           0       -3.941988   -3.283944    1.591443
     18          1           0       -3.766054   -1.877458    2.613164
     19          6           0       -5.526439   -1.848405    1.382215
     20          1           0       -5.639416   -0.785583    1.432686
     21          1           0       -5.815349   -2.192069    0.410965
     22          6           0       -6.419498   -2.510736    2.447749
     23          1           0       -6.130588   -2.167072    3.418999
     24          1           0       -7.441887   -2.251770    2.267309
     25          1           0       -6.306522   -3.573557    2.397278
     26         16           0        2.075217   -3.813774    1.339005
     27          8           0        2.050218   -5.274338    1.499792
     28          8           0        2.723987   -3.472191    0.065371
     29          8           0        0.699480   -3.296993    1.342064
     30          8           0        2.929724   -3.129458    2.600127
     31          6           0        4.268390   -3.632314    2.597150
     32          1           0        4.740753   -3.383611    1.669831
     33          1           0        4.815889   -3.193860    3.405174
     34          1           0        4.250189   -4.695735    2.714218
 ---------------------------------------------------------------------
                    Distance matrix (angstroms):
                    1          2          3          4          5
     1  C    0.000000
     2  C    1.345170   0.000000
     3  C    2.138688   2.138688   0.000000
     4  N    1.334777   2.153556   1.301779   0.000000
     5  H    1.070000   2.160500   3.172820   2.150969   0.000000
     6  H    2.160500   1.070000   3.172820   3.191758   2.618896
     7  H    3.172297   3.172297   1.070000   2.109909   4.170887
     8  N    2.153556   1.334777   1.301779   2.123281   3.191758
     9  C    3.582821   2.497531   2.468587   3.546405   4.579817
    10  H    3.919513   2.663880   3.267344   4.171614   4.802751
    11  H    4.061414   2.998004   2.971620   4.025406   5.026059
    12  H    4.198521   3.298455   2.643013   3.873682   5.239860
    13  C    2.497531   3.582821   2.468587   1.470000   2.850845
    14  H    3.298455   4.198521   2.643013   2.086720   3.784040
    15  H    2.663880   3.919513   3.267344   2.086720   2.640605
    16  C    3.304533   4.338880   3.279693   2.457987   3.532134
    17  H    3.109039   4.174114   3.640484   2.690080   3.110091
    18  H    3.667380   4.437142   3.092427   2.690081   4.125388
    19  C    4.669542   5.799273   4.645604   3.810770   4.728613
    20  H    5.142642   6.198592   4.740594   4.088455   5.343353
    21  H    4.760590   6.013114   5.115002   4.088455   4.604917
    22  C    5.728103   6.778282   5.706870   4.972628   5.747409
    23  H    5.944822   6.841598   5.601347   5.091352   6.129891
    24  H    6.653205   7.753928   6.631820   5.874555   6.617497
    25  H    5.617593   6.674014   5.921579   5.091352   5.498127
    26  S    3.456613   2.195646   3.952785   4.308161   3.976412
    27  O    4.089626   3.103502   5.005235   5.122666   4.313933
    28  O    3.884953   2.737896   4.528976   4.804602   4.282689
    29  O    2.110571   0.865189   2.623147   2.866192   2.819976
    30  O    4.649034   3.330643   4.409648   5.157321   5.370339
    31  C    5.885894   4.560072   5.804437   6.511750   6.498217
    32  H    6.027818   4.705665   6.054005   6.715501   6.593164
    33  H    6.692413   5.363293   6.331762   7.176675   7.384201
    34  H    6.125599   4.868082   6.321159   6.884541   6.607978
                    6          7          8          9         10
     6  H    0.000000
     7  H    4.170887   0.000000
     8  N    2.150969   2.109909   0.000000
     9  C    2.850845   2.799071   1.470000   0.000000
    10  H    2.640606   3.733527   2.086720   1.070000   0.000000
    11  H    3.262801   3.213227   2.086720   1.070000   1.747303
    12  H    3.784041   2.590455   2.086720   1.070000   1.747303
    13  C    4.579817   2.799071   3.546405   4.905656   5.593844
    14  H    5.239859   2.590453   3.873682   5.074755   5.907357
    15  H    4.802750   3.733526   4.171614   5.593844   6.227443
    16  C    5.279011   3.484595   4.303582   5.586010   6.148382
    17  H    4.977437   4.081064   4.413697   5.736215   6.130673
    18  H    5.400426   3.070230   4.133252   5.231273   5.805255
    19  C    6.736877   4.680069   5.761091   7.032462   7.653049
    20  H    7.201869   4.558366   5.968132   7.151448   7.885109
    21  H    6.890370   5.292208   6.165675   7.528688   8.127676
    22  C    7.655260   5.703939   6.742274   7.932076   8.450145
    23  H    7.739487   5.460662   6.634849   7.686387   8.203860
    24  H    8.640922   6.573272   7.716336   8.915754   9.472322
    25  H    7.450499   6.086674   6.813088   8.038563   8.437268
    26  S    1.391322   4.795408   2.703731   2.664894   1.969917
    27  O    2.190918   5.904757   3.878823   3.994475   3.192527
    28  O    1.884498   5.378207   3.330626   3.295679   2.849345
    29  O    0.858591   3.562576   1.537983   2.236690   2.071457
    30  O    2.891127   4.962867   3.161037   2.303094   1.255942
    31  C    3.906841   6.355698   4.532348   3.617327   2.629940
    32  H    3.980064   6.641768   4.764211   3.901767   3.066528
    33  H    4.830167   6.737489   5.119810   3.985635   3.064761
    34  H    4.092693   6.959791   5.057199   4.351197   3.303523
                   11         12         13         14         15
    11  H    0.000000
    12  H    1.747303   0.000000
    13  C    5.340610   5.074755   0.000000
    14  H    5.386314   5.116733   1.070000   0.000000
    15  H    5.942426   5.907357   1.070000   1.747303   0.000000
    16  C    6.235330   5.582813   1.540000   2.148263   2.148263
    17  H    6.463545   5.841945   2.148263   3.024610   2.468846
    18  H    5.956288   5.041072   2.148263   2.468846   3.024610
    19  C    7.615813   6.974510   2.514809   2.732978   2.732978
    20  H    7.647933   7.005113   2.732978   2.514809   3.062243
    21  H    8.049281   7.601810   2.732977   3.062243   2.514809
    22  C    8.641881   7.770632   3.875582   4.154945   4.154945
    23  H    8.442756   7.391031   4.154945   4.329403   4.668704
    24  H    9.584305   8.741646   4.653783   4.810184   4.810183
    25  H    8.807961   7.958847   4.154945   4.668704   4.329403
    26  S    3.078354   3.578265   5.752739   6.335499   6.098894
    27  O    4.524355   4.782872   6.467164   7.207740   6.724635
    28  O    3.233445   4.341614   6.210149   6.720087   6.387807
    29  O    2.877069   3.060591   4.303245   4.914551   4.710269
    30  O    2.717539   2.923289   6.608366   7.023263   7.154498
    31  C    3.780205   4.198603   7.974479   8.403552   8.457585
    32  H    3.795248   4.629390   8.183985   8.583512   8.576632
    33  H    4.111194   4.341857   8.620948   8.969853   9.189476
    34  H    4.657837   4.935862   8.327660   8.866895   8.762095
                   16         17         18         19         20
    16  C    0.000000
    17  H    1.070000   0.000000
    18  H    1.070000   1.747303   0.000000
    19  C    1.540000   2.148263   2.148263   0.000000
    20  H    2.148263   3.024610   2.468846   1.070000   0.000000
    21  H    2.148263   2.468846   3.024610   1.070000   1.747303
    22  C    2.514809   2.732978   2.732978   1.540000   2.148263
    23  H    2.732978   3.062243   2.514809   2.148263   2.468846
    24  H    3.444314   3.710993   3.710993   2.148263   2.468846
    25  H    2.732978   2.514809   3.062243   2.148263   3.024610
    26  S    6.340932   6.045759   6.284366   7.851734   8.288201
    27  O    6.827560   6.314793   6.826962   8.316044   8.904150
    28  O    7.071410   6.841020   7.152276   8.511186   8.890102
    29  O    4.883867   4.648182   4.855077   6.392347   6.818870
    30  O    7.108384   6.947067   6.811837   8.638930   8.960292
    31  C    8.496010   8.279078   8.223873  10.029810  10.374222
    32  H    8.872249   8.683667   8.690462  10.385317  10.702984
    33  H    9.096557   8.944169   8.718368  10.623859  10.908891
    34  H    8.732074   8.388417   8.497826  10.269566  10.711484
                   21         22         23         24         25
    21  H    0.000000
    22  C    2.148263   0.000000
    23  H    3.024610   1.070000   0.000000
    24  H    2.468846   1.070000   1.747303   0.000000
    25  H    2.468846   1.070000   1.747303   1.747303   0.000000
    26  S    8.108775   8.665299   8.623992   9.689008   8.451698
    27  O    8.517810   8.959476   8.959020   9.991249   8.575153
    28  O    8.641667   9.497549   9.557910  10.472962   9.327280
    29  O    6.673141   7.247110   7.227740   8.260171   7.090419
    30  O    9.063523   9.370913   9.148005  10.414001   9.249142
    31  C   10.418038  10.747615  10.533809  11.795986  10.576964
    32  H   10.697467  11.221331  11.078159  12.249684  11.072829
    33  H   11.090181  11.296781  10.994537  12.346471  11.174438
    34  H   10.624894  10.894377  10.707539  11.953130  10.620917
                   26         27         28         29         30
    26  S    0.000000
    27  O    1.469600   0.000000
    28  O    1.469600   2.399847   0.000000
    29  O    1.469600   2.399847   2.399847   0.000000
    30  O    1.670000   2.566082   2.566083   2.566082   0.000000
    31  C    2.534929   2.969971   2.969971   3.798000   1.430000
    32  H    2.720215   3.292832   2.578659   4.055467   2.051796
    33  H    3.487784   3.950672   3.950672   4.605636   2.051796
    34  H    2.720215   2.578659   3.292832   4.055468   2.051796
                   31         32         33         34
    31  C    0.000000
    32  H    1.070000   0.000000
    33  H    1.070000   1.747303   0.000000
    34  H    1.070000   1.747303   1.747303   0.000000
 Stoichiometry    C9H18N2O4S
 Framework group  C1[X(C9H18N2O4S)]
 Deg. of freedom    96
 Full point group                 C1      NOp   1
 Largest Abelian subgroup         C1      NOp   1
 Largest concise Abelian subgroup C1      NOp   1
                         Standard orientation:                         
 ---------------------------------------------------------------------
 Center     Atomic      Atomic             Coordinates (Angstroms)
 Number     Number       Type             X           Y           Z
 ---------------------------------------------------------------------
      1          6           0       -0.855154   -0.714963   -0.939674
      2          6           0        0.380640   -0.293906   -0.615624
      3          6           0       -0.981955    1.327416   -0.317906
      4          7           0       -1.680930    0.315344   -0.744256
      5          1           0       -1.124835   -1.690142   -1.287810
      6          1           0        1.281117   -0.870392   -0.656920
      7          1           0       -1.374446    2.292890   -0.075602
      8          7           0        0.269706    0.979960   -0.232759
      9          6           0        1.373587    1.843898    0.209912
     10          1           0        2.130097    1.246305    0.674105
     11          1           0        1.789194    2.352532   -0.634755
     12          1           0        1.004975    2.561708    0.912602
     13          6           0       -3.133187    0.308360   -0.971855
     14          1           0       -3.455674    1.290554   -1.247891
     15          1           0       -3.367651   -0.378207   -1.758337
     16          6           0       -3.853006   -0.124440    0.318937
     17          1           0       -3.530518   -1.106635    0.594973
     18          1           0       -3.618542    0.562126    1.105419
     19          6           0       -5.374417   -0.131757    0.080499
     20          1           0       -5.696905    0.850437   -0.195537
     21          1           0       -5.608881   -0.818324   -0.705982
     22          6           0       -6.094236   -0.564557    1.371292
     23          1           0       -5.859772    0.122009    2.157773
     24          1           0       -7.151321   -0.569641    1.205624
     25          1           0       -5.771749   -1.546752    1.647328
     26         16           0        2.464252   -0.579762    0.015019
     27          8           0        2.735675   -1.887911    0.627229
     28          8           0        3.004680   -0.556791   -1.351412
     29          8           0        1.013255   -0.350702   -0.028151
     30          8           0        3.190554    0.620371    0.921147
     31          6           0        4.602452    0.397483    0.963154
     32          1           0        4.995932    0.414208   -0.031730
     33          1           0        5.067807    1.166430    1.543726
     34          1           0        4.800072   -0.554966    1.408897
 ---------------------------------------------------------------------
 Rotational constants (GHZ):      1.4503816      0.1998475      0.1952727
 Standard basis: 6-311+G(d) (5D, 7F)
 There are   414 symmetry adapted basis functions of A   symmetry.
 Integral buffers will be    131072 words long.
 Raffenetti 2 integral format.
 Two-electron integral symmetry is turned on.
   414 basis functions,   680 primitive gaussians,   430 cartesian basis functions
    67 alpha electrons       67 beta electrons
       nuclear repulsion energy      1455.5344093267 Hartrees.
 NAtoms=   34 NActive=   34 NUniq=   34 SFac= 7.50D-01 NAtFMM=   80 NAOKFM=F Big=F
 One-electron integrals computed using PRISM.
 NBasis=   414 RedAO= T  NBF=   414
 NBsUse=   414 1.00D-06 NBFU=   414
 Harris functional with IExCor= 1009 diagonalized for initial guess.
 ExpMin= 4.05D-02 ExpMax= 9.34D+04 ExpMxC= 3.17D+03 IAcc=2 IRadAn=         0 AccDes= 0.00D+00
 HarFok:  IExCor= 1009 AccDes= 0.00D+00 IRadAn=         0 IDoV= 1
 ScaDFX=  1.000000  1.000000  1.000000  1.000000
 FoFCou: FMM=F IPFlag=           0 FMFlag=      100000 FMFlg1=           0
         NFxFlg=           0 DoJE=T BraDBF=F KetDBF=T FulRan=T
         Omega=  0.000000  0.000000  1.000000  0.000000  0.000000 ICntrl=     500 IOpCl=  0
         NMat0=    1 NMatS0=    1 NMatT0=    0 NMatD0=    1 NMtDS0=    0 NMtDT0=    0
         I1Cent=           4 NGrid=           0.
 Petite list used in FoFCou.
 Initial guess orbital symmetries:
       Occupied  (A) (A) (A) (A) (A) (A) (A) (A) (A) (A) (A) (A)
                 (A) (A) (A) (A) (A) (A) (A) (A) (A) (A) (A) (A)
                 (A) (A) (A) (A) (A) (A) (A) (A) (A) (A) (A) (A)
                 (A) (A) (A) (A) (A) (A) (A) (A) (A) (A) (A) (A)
                 (A) (A) (A) (A) (A) (A) (A) (A) (A) (A) (A) (A)
                 (A) (A) (A) (A) (A) (A) (A)
       Virtual   (A) (A) (A) (A) (A) (A) (A) (A) (A) (A) (A) (A)
                 (A) (A) (A) (A) (A) (A) (A) (A) (A) (A) (A) (A)
                 (A) (A) (A) (A) (A) (A) (A) (A) (A) (A) (A) (A)
                 (A) (A) (A) (A) (A) (A) (A) (A) (A) (A) (A) (A)
                 (A) (A) (A) (A) (A) (A) (A) (A) (A) (A) (A) (A)
                 (A) (A) (A) (A) (A) (A) (A) (A) (A) (A) (A) (A)
                 (A) (A) (A) (A) (A) (A) (A) (A) (A) (A) (A) (A)
                 (A) (A) (A) (A) (A) (A) (A) (A) (A) (A) (A) (A)
                 (A) (A) (A) (A) (A) (A) (A) (A) (A) (A) (A) (A)
                 (A) (A) (A) (A) (A) (A) (A) (A) (A) (A) (A) (A)
                 (A) (A) (A) (A) (A) (A) (A) (A) (A) (A) (A) (A)
                 (A) (A) (A) (A) (A) (A) (A) (A) (A) (A) (A) (A)
                 (A) (A) (A) (A) (A) (A) (A) (A) (A) (A) (A) (A)
                 (A) (A) (A) (A) (A) (A) (A) (A) (A) (A) (A) (A)
                 (A) (A) (A) (A) (A) (A) (A) (A) (A) (A) (A) (A)
                 (A) (A) (A) (A) (A) (A) (A) (A) (A) (A) (A) (A)
                 (A) (A) (A) (A) (A) (A) (A) (A) (A) (A) (A) (A)
                 (A) (A) (A) (A) (A) (A) (A) (A) (A) (A) (A) (A)
                 (A) (A) (A) (A) (A) (A) (A) (A) (A) (A) (A) (A)
                 (A) (A) (A) (A) (A) (A) (A) (A) (A) (A) (A) (A)
                 (A) (A) (A) (A) (A) (A) (A) (A) (A) (A) (A) (A)
                 (A) (A) (A) (A) (A) (A) (A) (A) (A) (A) (A) (A)
                 (A) (A) (A) (A) (A) (A) (A) (A) (A) (A) (A) (A)
                 (A) (A) (A) (A) (A) (A) (A) (A) (A) (A) (A) (A)
                 (A) (A) (A) (A) (A) (A) (A) (A) (A) (A) (A) (A)
                 (A) (A) (A) (A) (A) (A) (A) (A) (A) (A) (A) (A)
                 (A) (A) (A) (A) (A) (A) (A) (A) (A) (A) (A) (A)
                 (A) (A) (A) (A) (A) (A) (A) (A) (A) (A) (A) (A)
                 (A) (A) (A) (A) (A) (A) (A) (A) (A) (A) (A)
 The electronic state of the initial guess is 1-A.
 Requested convergence on RMS density matrix=1.00D-08 within 128 cycles.
 Requested convergence on MAX density matrix=1.00D-06.
 Requested convergence on             energy=1.00D-06.
 No special actions if energy rises.
 Restarting incremental Fock formation.
 SCF Done:  E(RM062X) =  -1160.62645109     A.U. after   23 cycles
             Convg  =    0.3340D-08             -V/T =  1.9954

 **********************************************************************

            Population analysis using the SCF density.

 **********************************************************************

 Orbital symmetries:
       Occupied  (A) (A) (A) (A) (A) (A) (A) (A) (A) (A) (A) (A)
                 (A) (A) (A) (A) (A) (A) (A) (A) (A) (A) (A) (A)
                 (A) (A) (A) (A) (A) (A) (A) (A) (A) (A) (A) (A)
                 (A) (A) (A) (A) (A) (A) (A) (A) (A) (A) (A) (A)
                 (A) (A) (A) (A) (A) (A) (A) (A) (A) (A) (A) (A)
                 (A) (A) (A) (A) (A) (A) (A)
       Virtual   (A) (A) (A) (A) (A) (A) (A) (A) (A) (A) (A) (A)
                 (A) (A) (A) (A) (A) (A) (A) (A) (A) (A) (A) (A)
                 (A) (A) (A) (A) (A) (A) (A) (A) (A) (A) (A) (A)
                 (A) (A) (A) (A) (A) (A) (A) (A) (A) (A) (A) (A)
                 (A) (A) (A) (A) (A) (A) (A) (A) (A) (A) (A) (A)
                 (A) (A) (A) (A) (A) (A) (A) (A) (A) (A) (A) (A)
                 (A) (A) (A) (A) (A) (A) (A) (A) (A) (A) (A) (A)
                 (A) (A) (A) (A) (A) (A) (A) (A) (A) (A) (A) (A)
                 (A) (A) (A) (A) (A) (A) (A) (A) (A) (A) (A) (A)
                 (A) (A) (A) (A) (A) (A) (A) (A) (A) (A) (A) (A)
                 (A) (A) (A) (A) (A) (A) (A) (A) (A) (A) (A) (A)
                 (A) (A) (A) (A) (A) (A) (A) (A) (A) (A) (A) (A)
                 (A) (A) (A) (A) (A) (A) (A) (A) (A) (A) (A) (A)
                 (A) (A) (A) (A) (A) (A) (A) (A) (A) (A) (A) (A)
                 (A) (A) (A) (A) (A) (A) (A) (A) (A) (A) (A) (A)
                 (A) (A) (A) (A) (A) (A) (A) (A) (A) (A) (A) (A)
                 (A) (A) (A) (A) (A) (A) (A) (A) (A) (A) (A) (A)
                 (A) (A) (A) (A) (A) (A) (A) (A) (A) (A) (A) (A)
                 (A) (A) (A) (A) (A) (A) (A) (A) (A) (A) (A) (A)
                 (A) (A) (A) (A) (A) (A) (A) (A) (A) (A) (A) (A)
                 (A) (A) (A) (A) (A) (A) (A) (A) (A) (A) (A) (A)
                 (A) (A) (A) (A) (A) (A) (A) (A) (A) (A) (A) (A)
                 (A) (A) (A) (A) (A) (A) (A) (A) (A) (A) (A) (A)
                 (A) (A) (A) (A) (A) (A) (A) (A) (A) (A) (A) (A)
                 (A) (A) (A) (A) (A) (A) (A) (A) (A) (A) (A) (A)
                 (A) (A) (A) (A) (A) (A) (A) (A) (A) (A) (A) (A)
                 (A) (A) (A) (A) (A) (A) (A) (A) (A) (A) (A) (A)
                 (A) (A) (A) (A) (A) (A) (A) (A) (A) (A) (A) (A)
                 (A) (A) (A) (A) (A) (A) (A) (A) (A) (A) (A)
 The electronic state is 1-A.
 Alpha  occ. eigenvalues --  -90.13228 -19.80782 -19.69016 -19.63323 -19.63275
 Alpha  occ. eigenvalues --  -14.81993 -14.76828 -10.62793 -10.59541 -10.59482
 Alpha  occ. eigenvalues --  -10.58254 -10.54566 -10.54237 -10.54099 -10.53549
 Alpha  occ. eigenvalues --  -10.52735  -8.48299  -6.40705  -6.40195  -6.39946
 Alpha  occ. eigenvalues --   -1.72975  -1.31050  -1.23141  -1.18565  -1.13330
 Alpha  occ. eigenvalues --   -1.11790  -1.06093  -0.95087  -0.91755  -0.88883
 Alpha  occ. eigenvalues --   -0.85784  -0.84729  -0.82415  -0.80645  -0.74408
 Alpha  occ. eigenvalues --   -0.70094  -0.69164  -0.67728  -0.62987  -0.62866
 Alpha  occ. eigenvalues --   -0.59924  -0.58755  -0.57991  -0.57093  -0.55299
 Alpha  occ. eigenvalues --   -0.53719  -0.53058  -0.51834  -0.51159  -0.50205
 Alpha  occ. eigenvalues --   -0.50122  -0.49000  -0.47126  -0.46171  -0.44787
 Alpha  occ. eigenvalues --   -0.44559  -0.42606  -0.41744  -0.41684  -0.41229
 Alpha  occ. eigenvalues --   -0.40030  -0.38596  -0.37574  -0.36545  -0.33118
 Alpha  occ. eigenvalues --   -0.26074  -0.14253
 Alpha virt. eigenvalues --    0.00092   0.00587   0.01420   0.01722   0.01884
 Alpha virt. eigenvalues --    0.02763   0.03322   0.03517   0.04406   0.04776
 Alpha virt. eigenvalues --    0.04981   0.05018   0.05873   0.06250   0.06552
 Alpha virt. eigenvalues --    0.06978   0.07624   0.07802   0.07985   0.08402
 Alpha virt. eigenvalues --    0.09617   0.09859   0.09953   0.10250   0.10658
 Alpha virt. eigenvalues --    0.11280   0.11569   0.12606   0.12932   0.13365
 Alpha virt. eigenvalues --    0.13520   0.13813   0.14360   0.14577   0.15106
 Alpha virt. eigenvalues --    0.15529   0.16335   0.17047   0.17911   0.18661
 Alpha virt. eigenvalues --    0.18868   0.19010   0.19804   0.20079   0.20599
 Alpha virt. eigenvalues --    0.20919   0.21660   0.21845   0.21996   0.22320
 Alpha virt. eigenvalues --    0.22942   0.23106   0.23431   0.23951   0.24112
 Alpha virt. eigenvalues --    0.24851   0.25029   0.25355   0.25429   0.26050
 Alpha virt. eigenvalues --    0.26315   0.26714   0.26946   0.27701   0.28163
 Alpha virt. eigenvalues --    0.28332   0.28563   0.28796   0.30207   0.30448
 Alpha virt. eigenvalues --    0.30927   0.31048   0.31108   0.31495   0.32380
 Alpha virt. eigenvalues --    0.32677   0.33719   0.34063   0.34291   0.34438
 Alpha virt. eigenvalues --    0.35285   0.35878   0.36100   0.36980   0.37543
 Alpha virt. eigenvalues --    0.38451   0.39071   0.39771   0.41062   0.41829
 Alpha virt. eigenvalues --    0.42689   0.43358   0.43905   0.44190   0.44523
 Alpha virt. eigenvalues --    0.45630   0.46646   0.47176   0.48235   0.49519
 Alpha virt. eigenvalues --    0.49795   0.50459   0.51228   0.52590   0.53513
 Alpha virt. eigenvalues --    0.54697   0.55071   0.56517   0.56702   0.57620
 Alpha virt. eigenvalues --    0.58133   0.58973   0.60713   0.61681   0.62198
 Alpha virt. eigenvalues --    0.63571   0.63801   0.65463   0.66517   0.67111
 Alpha virt. eigenvalues --    0.68027   0.69126   0.69140   0.70416   0.71078
 Alpha virt. eigenvalues --    0.71579   0.72733   0.73243   0.73406   0.73691
 Alpha virt. eigenvalues --    0.73826   0.74544   0.75238   0.76895   0.78083
 Alpha virt. eigenvalues --    0.78621   0.79258   0.79500   0.79676   0.80263
 Alpha virt. eigenvalues --    0.81492   0.82256   0.83890   0.85060   0.85472
 Alpha virt. eigenvalues --    0.87669   0.88114   0.91380   0.93095   0.95287
 Alpha virt. eigenvalues --    0.96702   0.97664   1.00735   1.01943   1.02018
 Alpha virt. eigenvalues --    1.02903   1.04256   1.05310   1.06035   1.07492
 Alpha virt. eigenvalues --    1.08432   1.09228   1.11001   1.12545   1.14538
 Alpha virt. eigenvalues --    1.15032   1.16374   1.17135   1.18362   1.20536
 Alpha virt. eigenvalues --    1.21338   1.22668   1.24633   1.25074   1.27799
 Alpha virt. eigenvalues --    1.28601   1.28929   1.30847   1.32195   1.33214
 Alpha virt. eigenvalues --    1.34941   1.35849   1.38124   1.39036   1.40451
 Alpha virt. eigenvalues --    1.45401   1.46758   1.47845   1.49769   1.52545
 Alpha virt. eigenvalues --    1.53201   1.56391   1.57846   1.58164   1.60948
 Alpha virt. eigenvalues --    1.61669   1.63160   1.63385   1.63975   1.65245
 Alpha virt. eigenvalues --    1.66400   1.67494   1.69205   1.69495   1.71149
 Alpha virt. eigenvalues --    1.72424   1.73579   1.74546   1.75376   1.77222
 Alpha virt. eigenvalues --    1.77468   1.79388   1.80263   1.82650   1.83345
 Alpha virt. eigenvalues --    1.83660   1.85393   1.88416   1.89114   1.91077
 Alpha virt. eigenvalues --    1.91725   1.95746   1.96904   1.98598   1.99666
 Alpha virt. eigenvalues --    2.00401   2.03294   2.07636   2.10070   2.17604
 Alpha virt. eigenvalues --    2.18590   2.24068   2.28090   2.33774   2.38993
 Alpha virt. eigenvalues --    2.43238   2.48403   2.49623   2.50313   2.51823
 Alpha virt. eigenvalues --    2.53446   2.55640   2.56417   2.56683   2.57008
 Alpha virt. eigenvalues --    2.57376   2.59614   2.62003   2.62953   2.63834
 Alpha virt. eigenvalues --    2.67277   2.67981   2.68502   2.73086   2.76072
 Alpha virt. eigenvalues --    2.77812   2.81569   2.82636   2.86459   2.87048
 Alpha virt. eigenvalues --    2.90405   2.91097   2.92087   2.93859   2.95612
 Alpha virt. eigenvalues --    2.97414   2.99604   3.01064   3.01883   3.02541
 Alpha virt. eigenvalues --    3.03178   3.05920   3.07738   3.10707   3.10919
 Alpha virt. eigenvalues --    3.13692   3.15121   3.19735   3.20727   3.21556
 Alpha virt. eigenvalues --    3.23728   3.25943   3.27064   3.27865   3.30583
 Alpha virt. eigenvalues --    3.32211   3.32569   3.35515   3.41745   3.42292
 Alpha virt. eigenvalues --    3.44584   3.48382   3.51031   3.56067   3.57672
 Alpha virt. eigenvalues --    3.60815   3.64789   3.67348   3.68816   3.74675
 Alpha virt. eigenvalues --    3.78372   3.82544   3.84093   3.89146   3.96230
 Alpha virt. eigenvalues --    3.99189   4.01306   4.02873   4.11738   4.13625
 Alpha virt. eigenvalues --    4.48404   4.82454   4.96401   4.98316   5.10920
 Alpha virt. eigenvalues --    5.13474   5.16364   5.17723   5.21205   5.26062
 Alpha virt. eigenvalues --    5.27458   5.31595   5.41150   5.51813   5.53486
 Alpha virt. eigenvalues --    5.60648   6.39995   8.41221  17.60122  17.62024
 Alpha virt. eigenvalues --   17.69618  23.57987  23.64755  23.70703  23.74419
 Alpha virt. eigenvalues --   23.75487  23.80378  24.03837  24.10994  24.68851
 Alpha virt. eigenvalues --   35.63392  35.83362  49.98056  49.99189  50.05517
 Alpha virt. eigenvalues --   50.62012 189.69373
          Condensed to atoms (all electrons):
              1          2          3          4          5          6
     1  C   45.552276 -32.459329   0.632333  -1.975999   0.470637  -0.733151
     2  C  -32.459329  41.620163  -1.040190   2.022164  -0.044004   0.152970
     3  C    0.632333  -1.040190   6.920454   0.627883  -0.020954   0.210647
     4  N   -1.975999   2.022164   0.627883   7.132260  -0.095827  -0.023588
     5  H    0.470637  -0.044004  -0.020954  -0.095827   0.411138  -0.010783
     6  H   -0.733151   0.152970   0.210647  -0.023588  -0.010783   2.492245
     7  H   -0.161629   0.125607   0.473214  -0.034556  -0.000177   0.003611
     8  N   -1.575623  -0.567837   0.294199  -0.782333   0.015725   1.601346
     9  C   -0.050525   0.209921  -0.472253  -0.107896  -0.000491  -0.281435
    10  H    0.391084  -0.039616  -0.083659  -0.049651  -0.000016   0.029522
    11  H   -0.047875  -0.037884  -0.000499  -0.012760  -0.000045   0.011747
    12  H    0.119641  -0.036328   0.076596   0.007539   0.000057  -0.006845
    13  C   -1.667921   1.235402  -0.359496   0.229472  -0.051329   0.007746
    14  H   -0.041018  -0.002454   0.050255  -0.066955  -0.000607   0.000077
    15  H    0.038097   0.029286  -0.054265  -0.107065   0.003493  -0.000930
    16  C    0.941296  -0.676110   0.097133  -0.278208   0.033941  -0.003249
    17  H    0.024041  -0.019432   0.016387  -0.004444  -0.000655  -0.000297
    18  H    0.028354  -0.014591  -0.000946  -0.006186   0.000014  -0.000086
    19  C   -0.347062   0.226856  -0.036773   0.067579  -0.000379   0.005377
    20  H    0.003317  -0.002726   0.005995  -0.001702   0.000004  -0.000002
    21  H    0.002587  -0.000481  -0.002427   0.000408   0.000005   0.000000
    22  C    0.003963  -0.004310  -0.015352  -0.031999   0.001228  -0.000519
    23  H    0.000701   0.000097  -0.000982   0.000403  -0.000001   0.000000
    24  H   -0.000130   0.000169  -0.000094   0.000168  -0.000001   0.000000
    25  H   -0.000026  -0.000370   0.001502  -0.000059   0.000005   0.000000
    26  S   -2.421425  -1.296030  -0.293795  -0.101356   0.003267  -0.563716
    27  O    0.521784  -0.044393   0.027031  -0.004531   0.001835  -0.027387
    28  O    0.043089   0.730347   0.092485   0.007363   0.000672   0.101727
    29  O   -0.212638  -3.746982  -0.666089   0.088146   0.026912  -2.069053
    30  O   -0.616018  -0.287705   0.014054   0.031123  -0.000350   0.098893
    31  C    0.154243  -0.029735  -0.030187  -0.007015   0.000173  -0.035478
    32  H   -0.002309  -0.005369  -0.000269   0.000042   0.000001  -0.003818
    33  H   -0.003151  -0.013741   0.000311  -0.000032   0.000000   0.001207
    34  H    0.000723   0.012610   0.000375   0.000074   0.000001  -0.001295
              7          8          9         10         11         12
     1  C   -0.161629  -1.575623  -0.050525   0.391084  -0.047875   0.119641
     2  C    0.125607  -0.567837   0.209921  -0.039616  -0.037884  -0.036328
     3  C    0.473214   0.294199  -0.472253  -0.083659  -0.000499   0.076596
     4  N   -0.034556  -0.782333  -0.107896  -0.049651  -0.012760   0.007539
     5  H   -0.000177   0.015725  -0.000491  -0.000016  -0.000045   0.000057
     6  H    0.003611   1.601346  -0.281435   0.029522   0.011747  -0.006845
     7  H    0.432206  -0.066546  -0.013885   0.000109   0.000809  -0.002020
     8  N   -0.066546  13.021412  -0.984413  -0.206996   0.034274  -0.134528
     9  C   -0.013885  -0.984413   6.871053   0.348390   0.443229   0.363522
    10  H    0.000109  -0.206996   0.348390   0.859816   0.011551  -0.062541
    11  H    0.000809   0.034274   0.443229   0.011551   0.420770  -0.035241
    12  H   -0.002020  -0.134528   0.363522  -0.062541  -0.035241   0.456944
    13  C   -0.000912  -0.083397  -0.043856  -0.012165  -0.003283   0.002623
    14  H    0.001717   0.012654   0.001855   0.000032   0.000029  -0.000064
    15  H   -0.000571  -0.021320  -0.000548  -0.000028  -0.000020   0.000022
    16  C    0.012296   0.038969   0.012119   0.002302   0.000738  -0.001275
    17  H   -0.000049  -0.001353  -0.000084  -0.000005   0.000000   0.000008
    18  H   -0.000918   0.002404   0.001175  -0.000005   0.000001   0.000018
    19  C    0.007153   0.050157   0.000711   0.000066   0.000155  -0.000835
    20  H   -0.000042   0.000010  -0.000016   0.000000   0.000000   0.000001
    21  H   -0.000001   0.000323   0.000036   0.000000   0.000000   0.000000
    22  C    0.000054  -0.003026   0.000802  -0.000013  -0.000011   0.000055
    23  H    0.000010   0.000144   0.000016   0.000000   0.000000   0.000000
    24  H    0.000000  -0.000015  -0.000004   0.000000   0.000000   0.000000
    25  H    0.000000  -0.000043   0.000007   0.000000   0.000000   0.000000
    26  S    0.014822   0.428744  -0.223796  -0.119671  -0.028299  -0.002861
    27  O   -0.000015  -0.011912  -0.047432  -0.013728  -0.005182   0.002570
    28  O    0.000199   0.032600  -0.011287   0.086230   0.009794  -0.002756
    29  O   -0.018099  -4.191528   1.059256  -0.204278  -0.052132  -0.012046
    30  O    0.000263   0.518479  -0.169520  -0.584317   0.003318   0.011735
    31  C   -0.000102  -0.108319   0.034321   0.066356  -0.002312   0.001373
    32  H   -0.000001  -0.006154   0.003764   0.008018  -0.000006   0.000108
    33  H    0.000001   0.006480   0.000997  -0.007384   0.000421  -0.000313
    34  H    0.000000  -0.001048  -0.002852  -0.012549  -0.000179   0.000146
             13         14         15         16         17         18
     1  C   -1.667921  -0.041018   0.038097   0.941296   0.024041   0.028354
     2  C    1.235402  -0.002454   0.029286  -0.676110  -0.019432  -0.014591
     3  C   -0.359496   0.050255  -0.054265   0.097133   0.016387  -0.000946
     4  N    0.229472  -0.066955  -0.107065  -0.278208  -0.004444  -0.006186
     5  H   -0.051329  -0.000607   0.003493   0.033941  -0.000655   0.000014
     6  H    0.007746   0.000077  -0.000930  -0.003249  -0.000297  -0.000086
     7  H   -0.000912   0.001717  -0.000571   0.012296  -0.000049  -0.000918
     8  N   -0.083397   0.012654  -0.021320   0.038969  -0.001353   0.002404
     9  C   -0.043856   0.001855  -0.000548   0.012119  -0.000084   0.001175
    10  H   -0.012165   0.000032  -0.000028   0.002302  -0.000005  -0.000005
    11  H   -0.003283   0.000029  -0.000020   0.000738   0.000000   0.000001
    12  H    0.002623  -0.000064   0.000022  -0.001275   0.000008   0.000018
    13  C    8.079929   0.389119   0.480928  -1.227874  -0.052966  -0.044477
    14  H    0.389119   0.423066  -0.028522  -0.007587   0.002853  -0.004910
    15  H    0.480928  -0.028522   0.422889  -0.000444  -0.002467   0.003405
    16  C   -1.227874  -0.007587  -0.000444   7.259854   0.470859   0.456564
    17  H   -0.052966   0.002853  -0.002467   0.470859   0.408681  -0.028256
    18  H   -0.044477  -0.004910   0.003405   0.456564  -0.028256   0.424610
    19  C    0.279864  -0.004165  -0.049677  -0.966504  -0.088278  -0.080343
    20  H   -0.011347   0.000940   0.001132  -0.004503   0.005639  -0.005579
    21  H    0.008285   0.000261   0.000194  -0.067638  -0.005955   0.005532
    22  C   -0.194915   0.003455   0.011117   0.164641  -0.003811  -0.001651
    23  H   -0.000716   0.000112  -0.000085  -0.052877  -0.000445   0.003300
    24  H    0.011371  -0.000038  -0.000033   0.072851  -0.000157  -0.000182
    25  H   -0.003549  -0.000024   0.000116  -0.030716   0.003480  -0.000282
    26  S    0.138439   0.000261  -0.002843  -0.060210  -0.000919   0.000022
    27  O    0.000860  -0.000008   0.000024   0.000050  -0.000005  -0.000002
    28  O   -0.013022   0.000005   0.000024   0.001667   0.000002  -0.000001
    29  O   -0.175664  -0.001510   0.003372   0.098242   0.001018   0.000950
    30  O    0.013602  -0.000005  -0.000002  -0.002946   0.000003   0.000011
    31  C    0.000839  -0.000001   0.000001  -0.000651   0.000000   0.000004
    32  H    0.000019   0.000000   0.000000  -0.000007   0.000000   0.000000
    33  H    0.000015   0.000000   0.000000   0.000000   0.000000   0.000000
    34  H   -0.000045   0.000000   0.000000   0.000013   0.000000   0.000000
             19         20         21         22         23         24
     1  C   -0.347062   0.003317   0.002587   0.003963   0.000701  -0.000130
     2  C    0.226856  -0.002726  -0.000481  -0.004310   0.000097   0.000169
     3  C   -0.036773   0.005995  -0.002427  -0.015352  -0.000982  -0.000094
     4  N    0.067579  -0.001702   0.000408  -0.031999   0.000403   0.000168
     5  H   -0.000379   0.000004   0.000005   0.001228  -0.000001  -0.000001
     6  H    0.005377  -0.000002   0.000000  -0.000519   0.000000   0.000000
     7  H    0.007153  -0.000042  -0.000001   0.000054   0.000010   0.000000
     8  N    0.050157   0.000010   0.000323  -0.003026   0.000144  -0.000015
     9  C    0.000711  -0.000016   0.000036   0.000802   0.000016  -0.000004
    10  H    0.000066   0.000000   0.000000  -0.000013   0.000000   0.000000
    11  H    0.000155   0.000000   0.000000  -0.000011   0.000000   0.000000
    12  H   -0.000835   0.000001   0.000000   0.000055   0.000000   0.000000
    13  C    0.279864  -0.011347   0.008285  -0.194915  -0.000716   0.011371
    14  H   -0.004165   0.000940   0.000261   0.003455   0.000112  -0.000038
    15  H   -0.049677   0.001132   0.000194   0.011117  -0.000085  -0.000033
    16  C   -0.966504  -0.004503  -0.067638   0.164641  -0.052877   0.072851
    17  H   -0.088278   0.005639  -0.005955  -0.003811  -0.000445  -0.000157
    18  H   -0.080343  -0.005579   0.005532  -0.001651   0.003300  -0.000182
    19  C    6.748014   0.375078   0.440150  -0.157577   0.031411  -0.103460
    20  H    0.375078   0.464703  -0.038110  -0.045160  -0.008896  -0.003708
    21  H    0.440150  -0.038110   0.456245  -0.056613   0.006732  -0.003664
    22  C   -0.157577  -0.045160  -0.056613   6.205948   0.365691   0.373829
    23  H    0.031411  -0.008896   0.006732   0.365691   0.454847  -0.024934
    24  H   -0.103460  -0.003708  -0.003664   0.373829  -0.024934   0.433863
    25  H    0.001422   0.006761  -0.008100   0.376066  -0.034029  -0.024639
    26  S    0.019196  -0.000072   0.000025  -0.002452   0.000015   0.000001
    27  O   -0.000147   0.000000   0.000000   0.000037   0.000000   0.000000
    28  O    0.000011   0.000000   0.000000  -0.000013   0.000000   0.000000
    29  O   -0.026932   0.000044   0.000001   0.003149  -0.000004  -0.000001
    30  O    0.000146   0.000000   0.000000  -0.000011   0.000000   0.000000
    31  C   -0.000032   0.000000   0.000000   0.000005   0.000000   0.000000
    32  H    0.000000   0.000000   0.000000   0.000000   0.000000   0.000000
    33  H    0.000000   0.000000   0.000000   0.000000   0.000000   0.000000
    34  H   -0.000001   0.000000   0.000000   0.000000   0.000000   0.000000
             25         26         27         28         29         30
     1  C   -0.000026  -2.421425   0.521784   0.043089  -0.212638  -0.616018
     2  C   -0.000370  -1.296030  -0.044393   0.730347  -3.746982  -0.287705
     3  C    0.001502  -0.293795   0.027031   0.092485  -0.666089   0.014054
     4  N   -0.000059  -0.101356  -0.004531   0.007363   0.088146   0.031123
     5  H    0.000005   0.003267   0.001835   0.000672   0.026912  -0.000350
     6  H    0.000000  -0.563716  -0.027387   0.101727  -2.069053   0.098893
     7  H    0.000000   0.014822  -0.000015   0.000199  -0.018099   0.000263
     8  N   -0.000043   0.428744  -0.011912   0.032600  -4.191528   0.518479
     9  C    0.000007  -0.223796  -0.047432  -0.011287   1.059256  -0.169520
    10  H    0.000000  -0.119671  -0.013728   0.086230  -0.204278  -0.584317
    11  H    0.000000  -0.028299  -0.005182   0.009794  -0.052132   0.003318
    12  H    0.000000  -0.002861   0.002570  -0.002756  -0.012046   0.011735
    13  C   -0.003549   0.138439   0.000860  -0.013022  -0.175664   0.013602
    14  H   -0.000024   0.000261  -0.000008   0.000005  -0.001510  -0.000005
    15  H    0.000116  -0.002843   0.000024   0.000024   0.003372  -0.000002
    16  C   -0.030716  -0.060210   0.000050   0.001667   0.098242  -0.002946
    17  H    0.003480  -0.000919  -0.000005   0.000002   0.001018   0.000003
    18  H   -0.000282   0.000022  -0.000002  -0.000001   0.000950   0.000011
    19  C    0.001422   0.019196  -0.000147   0.000011  -0.026932   0.000146
    20  H    0.006761  -0.000072   0.000000   0.000000   0.000044   0.000000
    21  H   -0.008100   0.000025   0.000000   0.000000   0.000001   0.000000
    22  C    0.376066  -0.002452   0.000037  -0.000013   0.003149  -0.000011
    23  H   -0.034029   0.000015   0.000000   0.000000  -0.000004   0.000000
    24  H   -0.024639   0.000001   0.000000   0.000000  -0.000001   0.000000
    25  H    0.449541  -0.000008   0.000000   0.000000   0.000008   0.000000
    26  S   -0.000008  21.885363  -0.406621  -0.450930  -0.045292  -0.327209
    27  O    0.000000  -0.406621   8.906889  -0.210722  -0.294653  -0.326759
    28  O    0.000000  -0.450930  -0.210722   8.786534  -0.813926  -0.204274
    29  O    0.000008  -0.045292  -0.294653  -0.813926  18.088939   0.536404
    30  O    0.000000  -0.327209  -0.326759  -0.204274   0.536404   9.821870
    31  C    0.000000  -0.328807   0.061522   0.019180   0.019506  -0.229530
    32  H    0.000000  -0.004388  -0.002921   0.021312   0.007050  -0.048025
    33  H    0.000000   0.028693  -0.004257  -0.005008   0.003561  -0.062941
    34  H    0.000000  -0.027645   0.027806  -0.005944  -0.008812  -0.058489
             31         32         33         34
     1  C    0.154243  -0.002309  -0.003151   0.000723
     2  C   -0.029735  -0.005369  -0.013741   0.012610
     3  C   -0.030187  -0.000269   0.000311   0.000375
     4  N   -0.007015   0.000042  -0.000032   0.000074
     5  H    0.000173   0.000001   0.000000   0.000001
     6  H   -0.035478  -0.003818   0.001207  -0.001295
     7  H   -0.000102  -0.000001   0.000001   0.000000
     8  N   -0.108319  -0.006154   0.006480  -0.001048
     9  C    0.034321   0.003764   0.000997  -0.002852
    10  H    0.066356   0.008018  -0.007384  -0.012549
    11  H   -0.002312  -0.000006   0.000421  -0.000179
    12  H    0.001373   0.000108  -0.000313   0.000146
    13  C    0.000839   0.000019   0.000015  -0.000045
    14  H   -0.000001   0.000000   0.000000   0.000000
    15  H    0.000001   0.000000   0.000000   0.000000
    16  C   -0.000651  -0.000007   0.000000   0.000013
    17  H    0.000000   0.000000   0.000000   0.000000
    18  H    0.000004   0.000000   0.000000   0.000000
    19  C   -0.000032   0.000000   0.000000  -0.000001
    20  H    0.000000   0.000000   0.000000   0.000000
    21  H    0.000000   0.000000   0.000000   0.000000
    22  C    0.000005   0.000000   0.000000   0.000000
    23  H    0.000000   0.000000   0.000000   0.000000
    24  H    0.000000   0.000000   0.000000   0.000000
    25  H    0.000000   0.000000   0.000000   0.000000
    26  S   -0.328807  -0.004388   0.028693  -0.027645
    27  O    0.061522  -0.002921  -0.004257   0.027806
    28  O    0.019180   0.021312  -0.005008  -0.005944
    29  O    0.019506   0.007050   0.003561  -0.008812
    30  O   -0.229530  -0.048025  -0.062941  -0.058489
    31  C    6.008900   0.386972   0.399171   0.411630
    32  H    0.386972   0.392861  -0.027577  -0.028519
    33  H    0.399171  -0.027577   0.432391  -0.019711
    34  H    0.411630  -0.028519  -0.019711   0.414997
 Mulliken atomic charges:
              1
     1  C   -0.612336
     2  C    0.004028
     3  C   -0.462626
     4  N    0.477538
     5  H    0.256511
     6  H    0.044516
     7  H    0.227450
     8  N   -0.311527
     9  C   -0.940880
    10  H    0.593148
    11  H    0.288891
    12  H    0.254695
    13  C   -0.931579
    14  H    0.271177
    15  H    0.274717
    16  C   -0.282739
    17  H    0.276605
    18  H    0.262053
    19  C   -0.391181
    20  H    0.258241
    21  H    0.262202
    22  C   -0.992604
    23  H    0.259492
    24  H    0.268808
    25  H    0.262938
    26  S    0.189495
    27  O   -0.149731
    28  O   -0.215361
    29  O    0.603081
    30  O   -0.131797
    31  C   -0.792025
    32  H    0.309220
    33  H    0.270869
    34  H    0.298714
 Sum of Mulliken atomic charges =   0.00000
 Mulliken charges with hydrogens summed into heavy atoms:
              1
     1  C   -0.355825
     2  C    0.004028
     3  C   -0.235177
     4  N    0.477538
     8  N   -0.311527
     9  C    0.195853
    13  C   -0.385684
    16  C    0.255919
    19  C    0.129262
    22  C   -0.201367
    26  S    0.189495
    27  O   -0.149731
    28  O   -0.215361
    29  O    0.647596
    30  O   -0.131797
    31  C    0.086778
 Sum of Mulliken charges with hydrogens summed into heavy atoms =   0.00000
 Electronic spatial extent (au):  <R**2>=           5776.3046
 Charge=              0.0000 electrons
 Dipole moment (field-independent basis, Debye):
    X=             -3.6372    Y=              3.8237    Z=              1.8250  Tot=              5.5839
 Quadrupole moment (field-independent basis, Debye-Ang):
   XX=            -87.9177   YY=           -107.2957   ZZ=           -111.9515
   XY=              8.8349   XZ=              9.7423   YZ=              2.8283
 Traceless Quadrupole moment (field-independent basis, Debye-Ang):
   XX=             14.4706   YY=             -4.9074   ZZ=             -9.5631
   XY=              8.8349   XZ=              9.7423   YZ=              2.8283
 Octapole moment (field-independent basis, Debye-Ang**2):
  XXX=             47.1483  YYY=             15.4163  ZZZ=             12.7078  XYY=             -7.2056
  XXY=             32.5329  XXZ=             22.4944  XZZ=              3.7378  YZZ=              2.4821
  YYZ=             -1.1853  XYZ=              0.9034
 Hexadecapole moment (field-independent basis, Debye-Ang**3):
 XXXX=          -5989.8696 YYYY=           -674.9322 ZZZZ=           -539.4081 XXXY=             84.3794
 XXXZ=            193.4514 YYYX=             19.1034 YYYZ=             22.4512 ZZZX=             40.6151
 ZZZY=              4.1640 XXYY=          -1222.9691 XXZZ=          -1201.2892 YYZZ=           -198.4730
 XXYZ=             18.6069 YYXZ=              3.6058 ZZXY=              7.9956
 N-N= 1.455534409327D+03 E-N=-5.641788585277D+03  KE= 1.165975522779D+03
 Calling FoFJK, ICntrl=      2127 FMM=F ISym2X=0 I1Cent= 0 IOpClX= 0 NMat=1 NMatS=1 NMatT=0.
 ***** Axes restored to original set *****
 -------------------------------------------------------------------
 Center     Atomic                   Forces (Hartrees/Bohr)
 Number     Number              X              Y              Z
 -------------------------------------------------------------------
      1        6          -0.072099381   -0.056434159   -0.048660114
      2        6          -1.386786577    1.055804970   -1.386901881
      3        6          -0.045201473    0.082992889    0.029167152
      4        7          -0.043227385    0.013710488   -0.009055373
      5        1          -0.008521489    0.005355819   -0.007986367
      6        1           0.057020774   -0.207123657   -0.377026147
      7        1          -0.007385921    0.004767811    0.002783802
      8        7          -0.083548816    0.314101118    0.072398812
      9        6          -0.052683266    0.036651932   -0.029867094
     10        1          -0.034919273    0.061555952    0.016892773
     11        1           0.014013842    0.012334752   -0.008021892
     12        1          -0.009447381    0.006166772    0.010080008
     13        6           0.006518583   -0.018864156    0.028455562
     14        1           0.001729868    0.014932132   -0.001531993
     15        1           0.001249667   -0.003506919   -0.014514475
     16        6          -0.013108031    0.019574985   -0.026577311
     17        1           0.003599790   -0.015469882    0.001196231
     18        1           0.005752859    0.003058308    0.014696326
     19        6           0.010855240   -0.020438797    0.026243746
     20        1          -0.002744265    0.016399613   -0.002279489
     21        1          -0.004911360   -0.002307712   -0.015702497
     22        6           0.011289375    0.013480355   -0.020521819
     23        1           0.001827542    0.002980751    0.014945236
     24        1          -0.015390445    0.001215947    0.001001043
     25        1          -0.000443223   -0.015208733    0.001721598
     26       16           0.399907649   -0.175748749   -0.005645390
     27        8          -0.010551898    0.025996617    0.025413110
     28        8          -0.001221711    0.016184378    0.005490979
     29        8           1.167971210   -1.094527169    1.678359239
     30        8           0.092585144   -0.090252076    0.014735909
     31        6           0.009442342   -0.005705399    0.007905979
     32        1           0.005325276    0.004586773   -0.012206083
     33        1           0.002560425    0.008216719    0.012209064
     34        1           0.000542309   -0.014481671    0.002801356
 -------------------------------------------------------------------
 Cartesian Forces:  Max     1.678359239 RMS     0.326755746

 GradGradGradGradGradGradGradGradGradGradGradGradGradGradGradGradGradGrad
 Berny optimization.
 Internal  Forces:  Max     1.077761137 RMS     0.122043781
 Search for a local minimum.
 Step number   1 out of a maximum of  204
 All quantities printed in internal units (Hartrees-Bohrs-Radians)
 Mixed Optimization -- RFO/linear search
 Second derivative matrix not updated -- first step.
     Eigenvalues ---    0.00237   0.00237   0.00237   0.00766   0.00808
     Eigenvalues ---    0.01295   0.01427   0.01693   0.01807   0.01932
     Eigenvalues ---    0.02286   0.02707   0.02830   0.02991   0.03835
     Eigenvalues ---    0.03840   0.03840   0.04459   0.04502   0.04896
     Eigenvalues ---    0.04896   0.05496   0.05720   0.05720   0.06065
     Eigenvalues ---    0.06096   0.06874   0.07655   0.07655   0.07927
     Eigenvalues ---    0.08860   0.10344   0.10344   0.10551   0.11436
     Eigenvalues ---    0.11701   0.11701   0.12453   0.15143   0.16000
     Eigenvalues ---    0.16000   0.16000   0.16000   0.16000   0.16000
     Eigenvalues ---    0.16000   0.16000   0.16000   0.16000   0.16031
     Eigenvalues ---    0.17120   0.19246   0.19564   0.20785   0.21948
     Eigenvalues ---    0.21948   0.21985   0.22698   0.23425   0.24980
     Eigenvalues ---    0.25000   0.25000   0.28519   0.28519   0.28519
     Eigenvalues ---    0.34470   0.35740   0.36065   0.37230   0.37230
     Eigenvalues ---    0.37230   0.37230   0.37230   0.37230   0.37230
     Eigenvalues ---    0.37230   0.37230   0.37230   0.37230   0.37230
     Eigenvalues ---    0.37230   0.37230   0.37230   0.37230   0.37851
     Eigenvalues ---    0.39744   0.40989   0.48054   0.49289   0.54517
     Eigenvalues ---    0.62437   0.63233   0.64619   0.87694   0.87694
     Eigenvalues ---    4.852441000.000001000.000001000.000001000.00000
     Eigenvalues --- 1000.000001000.000001000.000001000.000001000.00000
     Eigenvalues --- 1000.000001000.000001000.000001000.000001000.00000
     Eigenvalues --- 1000.000001000.000001000.000001000.000001000.00000
     Eigenvalues --- 1000.000001000.000001000.000001000.000001000.00000
     Eigenvalues --- 1000.000001000.000001000.000001000.000001000.00000
     Eigenvalues --- 1000.000001000.000001000.000001000.000001000.00000
     Eigenvalues --- 1000.000001000.000001000.000001000.000001000.00000
     Eigenvalues --- 1000.000001000.000001000.000001000.000001000.00000
     Eigenvalues --- 1000.000001000.000001000.000001000.000001000.00000
     Eigenvalues --- 1000.000001000.000001000.000001000.000001000.00000
     Eigenvalues --- 1000.000001000.000001000.000001000.000001000.00000
     Eigenvalues --- 1000.000001000.000001000.000001000.000001000.00000
     Eigenvalues --- 1000.000001000.000001000.000001000.000001000.00000
     Eigenvalues --- 1000.000001000.000001000.000001000.000001000.00000
     Eigenvalues --- 1000.000001000.000001000.000001000.000001000.00000
     Eigenvalues --- 1000.000001000.000001000.000001000.000001000.00000
     Eigenvalues --- 1000.000001000.000001000.000001000.000001000.00000
     Eigenvalues --- 1000.000001000.000001000.000001000.000001000.00000
     Eigenvalues --- 1000.000001000.000001000.000001000.000001000.00000
 RFO step:  Lambda=-7.47039365D-01 EMin= 2.36824319D-03
 Linear search not attempted -- first point.
 Maximum step size (   0.300) exceeded in Quadratic search.
    -- Step size scaled by   0.521
 Iteration  1 RMS(Cart)=  0.04067971 RMS(Int)=  0.00048987
 Iteration  2 RMS(Cart)=  0.00080211 RMS(Int)=  0.00018810
 Iteration  3 RMS(Cart)=  0.00000074 RMS(Int)=  0.00018810
 Variable       Old X    -DE/DX   Delta X   Delta X   Delta X     New X
                                 (Linear)    (Quad)   (Total)
    R1        2.54200   0.05453   0.00000   0.04128   0.04131   2.58331
    R2        2.52236   0.05313   0.00000   0.02146   0.02144   2.54381
    R3        2.02201   0.00443   0.00000   0.00206   0.00206   2.02407
    R4        2.02201   0.62514   0.00000   0.10722   0.10701   2.12902
    R5        2.52236   0.18880   0.00000   0.06193   0.06092   2.58329
    R6        1.63497   1.07776   0.00000   0.10028   0.10087   1.73584
    R7        2.46001   0.09403   0.00000   0.01712   0.01708   2.47709
    R8        2.02201   0.00697   0.00000   0.00325   0.00325   2.02526
    R9        2.46001   0.11939   0.00000   0.03210   0.03210   2.49210
   R10        2.77790  -0.00817   0.00000  -0.00386  -0.00386   2.77404
   R11        2.62922   0.42116   0.00000   0.09213   0.09252   2.72173
   R12        1.62250   0.28871   0.00000   0.08207   0.08235   1.70485
   R13        2.77790   0.02680   0.00000   0.01482   0.01494   2.79284
   R14        2.90637   0.49486   0.00000   0.12924   0.12964   3.03601
   R15        2.02201   0.09164   0.00000   0.04782   0.04816   2.07016
   R16        2.02201   0.01970   0.00000   0.00918   0.00918   2.03118
   R17        2.02201   0.01393   0.00000   0.00649   0.00649   2.02850
   R18        2.37339   0.16224   0.00000   0.09464   0.09499   2.46838
   R19        2.02201   0.01458   0.00000   0.00679   0.00679   2.02880
   R20        2.02201   0.01396   0.00000   0.00650   0.00650   2.02851
   R21        2.91018  -0.00313   0.00000  -0.00158  -0.00158   2.90860
   R22        2.02201   0.01569   0.00000   0.00731   0.00731   2.02932
   R23        2.02201   0.01588   0.00000   0.00740   0.00740   2.02940
   R24        2.91018  -0.00232   0.00000  -0.00117  -0.00117   2.90900
   R25        2.02201   0.01647   0.00000   0.00767   0.00767   2.02968
   R26        2.02201   0.01632   0.00000   0.00760   0.00760   2.02961
   R27        2.91018  -0.00145   0.00000  -0.00073  -0.00073   2.90945
   R28        2.02201   0.01501   0.00000   0.00699   0.00699   2.02900
   R29        2.02201   0.01483   0.00000   0.00691   0.00691   2.02891
   R30        2.02201   0.01499   0.00000   0.00698   0.00698   2.02899
   R31        2.77714  -0.02288   0.00000  -0.00735  -0.00735   2.76980
   R32        2.77714  -0.00153   0.00000  -0.00049  -0.00049   2.77665
   R33        2.77714   0.04974   0.00000   0.07900   0.07814   2.85528
   R34        3.15584   0.01692   0.00000   0.00710   0.00708   3.16292
   R35        2.70231   0.01931   0.00000   0.00870   0.00870   2.71101
   R36        2.02201   0.01400   0.00000   0.00652   0.00652   2.02853
   R37        2.02201   0.01389   0.00000   0.00647   0.00647   2.02848
   R38        2.02201   0.01469   0.00000   0.00684   0.00684   2.02885
    A1        1.86657  -0.06270   0.00000   0.00197   0.00182   1.86839
    A2        2.20831   0.04137   0.00000   0.00477   0.00485   2.21316
    A3        2.20831   0.02133   0.00000  -0.00674  -0.00667   2.20164
    A4        2.20831   0.19935   0.00000  -0.00192  -0.00222   2.20609
    A5        1.86657   0.10867   0.00000  -0.01389  -0.01356   1.85301
    A6        2.52311   0.09010   0.00000  -0.01035  -0.01018   2.51293
    A7        2.20831  -0.30801   0.00000   0.01581   0.01576   2.22407
    A8        2.18795  -0.02760   0.00000  -0.00220  -0.00211   2.18584
    A9        1.90729   0.04348   0.00000  -0.00233  -0.00252   1.90477
   A10        2.18795  -0.01588   0.00000   0.00454   0.00463   2.19258
   A11        1.89218   0.04556   0.00000   0.01391   0.01371   1.90589
   A12        2.19550  -0.02285   0.00000  -0.00699  -0.00689   2.18861
   A13        2.19550  -0.02271   0.00000  -0.00692  -0.00682   2.18868
   A14        2.19501   0.12080   0.00000  -0.01104  -0.01106   2.18395
   A15        1.89218  -0.13501   0.00000   0.00034   0.00054   1.89272
   A16        2.19550   0.11107   0.00000  -0.00044  -0.00091   2.19459
   A17        2.19550   0.02394   0.00000   0.00010   0.00033   2.19584
   A18        2.35248   0.14751   0.00000   0.00588   0.00566   2.35814
   A19        1.67637  -0.19435   0.00000  -0.00735  -0.00733   1.66904
   A20        1.91063   0.05252   0.00000   0.03128   0.03126   1.94190
   A21        1.91063  -0.00187   0.00000  -0.00170  -0.00175   1.90889
   A22        1.91063  -0.01660   0.00000  -0.00943  -0.00943   1.90120
   A23        1.91063  -0.02473   0.00000  -0.01500  -0.01506   1.89557
[...]
   D75       -1.00210  -0.00003  -0.00285  -0.00830  -0.01115  -1.01325
   D76        1.09735  -0.00001  -0.00136  -0.00900  -0.01036   1.08699
   D77       -2.87437  -0.00044   0.00387  -0.00166   0.00218  -2.87219
   D78        3.02923  -0.00024   0.00918  -0.00500   0.00403   3.03326
   D79       -0.46768  -0.00002   0.00378  -0.00137   0.00238  -0.46531
   D80       -0.84727   0.00017   0.00909  -0.00471   0.00423  -0.84304
   D81        1.44745  -0.00041   0.00426  -0.00253   0.00161   1.44906
   D82        1.06786  -0.00021   0.00958  -0.00587   0.00346   1.07132
   D83       -2.11845   0.00012   0.00460   0.00223   0.00697  -2.11148
   D84        0.85035   0.00045   0.00496   0.00345   0.00829   0.85864
   D85       -1.26404  -0.00008   0.00560   0.00262   0.00828  -1.25576
   D86        2.96820  -0.00018   0.00438   0.00334   0.00764   2.97584
   D87        0.97654  -0.00004   0.00660  -0.01196  -0.00537   0.97117
   D88        3.05837   0.00013   0.00759  -0.01147  -0.00389   3.05448
   D89       -1.13926   0.00013   0.00751  -0.01151  -0.00400  -1.14326
         Item               Value     Threshold  Converged?
 Maximum Force            0.001165     0.000450     NO 
 RMS     Force            0.000326     0.000300     NO 
 Maximum Displacement     0.144090     0.001800     NO 
 RMS     Displacement     0.034935     0.001200     NO 
 Predicted change in Energy=-9.053452D-06
 GradGradGradGradGradGradGradGradGradGradGradGradGradGradGradGradGradGrad

                          Input orientation:                          
 ---------------------------------------------------------------------
 Center     Atomic      Atomic             Coordinates (Angstroms)
 Number     Number       Type             X           Y           Z
 ---------------------------------------------------------------------
      1          6           0       -1.146393   -1.597811   -0.710131
      2          6           0        0.207650   -1.555717   -0.785498
      3          6           0       -0.375883   -1.032699    1.262305
      4          7           0       -1.491447   -1.248484    0.575147
      5          1           0       -1.890513   -1.869824   -1.439185
      6          1           0        0.882952   -1.755609   -1.600317
      7          1           0       -0.315558   -0.833295    2.319285
      8          7           0        0.667516   -1.177204    0.454414
      9          6           0        2.069661   -1.014182    0.830728
     10          1           0        2.601153   -1.916699    0.540160
     11          1           0        2.470893   -0.125050    0.345716
     12          1           0        2.120951   -0.907677    1.911385
     13          6           0       -2.844288   -1.283126    1.142095
     14          1           0       -2.879340   -0.531849    1.934473
     15          1           0       -3.522276   -0.948132    0.353299
     16          6           0       -3.241795   -2.656659    1.664798
     17          1           0       -3.123930   -3.399335    0.870745
     18          1           0       -2.543922   -2.965122    2.446864
     19          6           0       -4.676958   -2.632353    2.182453
     20          1           0       -4.774433   -1.866385    2.961063
     21          1           0       -5.357720   -2.338148    1.374909
     22          6           0       -5.102228   -3.986612    2.742619
     23          1           0       -4.453815   -4.287547    3.568360
     24          1           0       -6.129194   -3.960480    3.111629
     25          1           0       -5.038559   -4.762843    1.976735
     26         16           0        0.721724   -4.230600    1.736193
     27          8           0        0.826224   -5.493718    2.442136
     28          8           0        1.796800   -3.960617    0.772376
     29          8           0       -0.607564   -3.854888    1.254337
     30          8           0        0.951779   -3.054052    2.920431
     31          6           0        2.092602   -3.277245    3.737278
     32          1           0        2.994458   -3.370113    3.123858
     33          1           0        2.182807   -2.412310    4.395696
     34          1           0        1.966661   -4.183858    4.331011
 ---------------------------------------------------------------------
                    Distance matrix (angstroms):
                    1          2          3          4          5
     1  C    0.000000
     2  C    1.356792   0.000000
     3  C    2.191698   2.192614   0.000000
     4  N    1.375874   2.198335   1.327867   0.000000
     5  H    1.076673   2.219967   3.208259   2.145425   0.000000
     6  H    2.221615   1.076996   3.209653   3.259999   2.780489
     7  H    3.232976   3.230375   1.077316   2.144089   4.204875
     8  N    2.196211   1.375548   1.327498   2.163510   3.257138
     9  C    3.613568   2.524388   2.483402   3.577947   4.644093
    10  H    3.963461   2.759807   3.188368   4.146940   4.908672
    11  H    4.045813   2.906669   3.125396   4.124910   5.025134
    12  H    4.245488   3.369549   2.582850   3.866665   5.314498
    13  C    2.532314   3.619979   2.483986   1.467246   2.813700
    14  H    3.336661   4.239818   2.640068   2.070647   3.761585
    15  H    2.682868   3.946943   3.276161   2.064871   2.593292
    16  C    3.339484   4.372036   3.318538   2.496801   3.475598
    17  H    3.107298   4.152287   3.647745   2.716347   3.032573
    18  H    3.713387   4.472777   3.136532   2.749159   4.089987
    19  C    4.679979   5.816121   4.680257   3.827010   4.632708
    20  H    5.168411   6.241345   4.788325   4.105167   5.261102
    21  H    4.757180   6.021038   5.151270   4.095737   4.489987
    22  C    5.768577   6.822878   5.766738   5.023248   5.681847
    23  H    6.039801   6.938893   5.704512   5.193347   6.123023
    24  H    6.709423   7.818317   6.715094   5.941159   6.561035
    25  H    5.690837   6.740793   6.013728   5.186249   5.472501
    26  S    4.050425   3.711900   3.414071   3.890909   4.741316
    27  O    5.385731   5.129143   4.768412   5.184522   5.964723
    28  O    4.055005   3.276570   3.678761   4.266982   4.781076
    29  O    3.040372   3.179888   2.831693   2.834765   3.583503
    30  O    4.438912   4.066036   2.932224   3.837941   5.337346
    31  C    5.752481   5.193477   4.154142   5.192336   6.681452
    32  H    5.914995   5.132387   4.504229   5.578582   6.850924
    33  H    6.149508   5.610684   4.274150   5.426899   7.136670
    34  H    6.464662   6.014974   4.983400   5.889096   7.316263
                    6          7          8          9         10
     6  H    0.000000
     7  H    4.201235   0.000000
     8  N    2.145434   2.135990   0.000000
     9  C    2.804991   2.817408   1.460890   0.000000
    10  H    2.749510   3.584167   2.071994   1.086945   0.000000
    11  H    2.994549   3.487248   2.090697   1.089395   1.806871
    12  H    3.818859   2.471536   2.075544   1.087103   1.768892
    13  C    4.651493   2.825350   3.580069   4.931144   5.515122
    14  H    5.305391   2.609967   3.897081   5.093477   5.822175
    15  H    4.886171   3.763154   4.197267   5.612669   6.202372
    16  C    5.337266   3.509398   4.351612   5.621830   5.996032
    17  H    4.986290   4.070600   4.414324   5.715237   5.923180
    18  H    5.439307   3.086514   4.180890   5.263384   5.586278
    19  C    6.781639   4.719867   5.802325   7.068416   7.495344
    20  H    7.268044   4.621766   6.031009   7.218462   7.762897
    21  H    6.938106   5.346011   6.204722   7.564061   8.013619
    22  C    7.724044   5.747594   6.813120   7.995415   8.275110
    23  H    7.849014   5.533283   6.752697   7.795209   8.035141
    24  H    8.731214   6.648719   7.810422   9.005799   9.327832
    25  H    7.543411   6.153489   6.908947   8.117424   8.278253
    26  S    4.157388   3.599671   3.311967   3.603074   3.211991
    27  O    5.506188   4.799823   4.754842   4.920266   4.423002
    28  O    3.365539   4.078618   3.020558   2.959618   2.208735
    29  O    3.844172   3.217049   3.071758   3.926396   3.816083
    30  O    4.704025   2.626648   3.112009   3.126913   3.111221
    31  C    5.680541   3.712523   4.149486   3.683749   3.511591
    32  H    5.420600   4.247232   4.165266   3.415275   2.990417
    33  H    6.170336   3.612007   4.399465   3.830999   3.909705
    34  H    6.500113   4.525686   5.075012   4.723286   4.462414
                   11         12         13         14         15
    11  H    0.000000
    12  H    1.785017   0.000000
    13  C    5.497865   5.038489   0.000000
    14  H    5.595948   5.014448   1.092478   0.000000
    15  H    6.049429   5.854509   1.092743   1.756921   0.000000
    16  C    6.386222   5.646130   1.522439   2.172306   2.172042
    17  H    6.503740   5.899158   2.151783   3.068194   2.536696
    18  H    6.134265   5.126486   2.149826   2.509157   3.067318
    19  C    7.794353   7.018514   2.502286   2.775796   2.741477
    20  H    7.897281   7.040402   2.715565   2.535005   3.035049
    21  H    8.200258   7.633124   2.735802   3.117402   2.518867
    22  C    8.832269   7.895892   3.868954   4.186850   4.175819
    23  H    8.698471   7.576056   4.183764   4.387918   4.728222
    24  H    9.814393   8.878349   4.673104   4.868548   4.845478
    25  H    8.975590   8.131737   4.197604   4.750297   4.414372
    26  S    4.674245   3.609757   4.664440   5.166018   5.540626
    27  O    5.993539   4.794767   5.735142   6.213620   6.628352
    28  O    3.917655   3.274578   5.370786   5.913814   6.127255
    29  O    4.920791   4.069712   3.410204   4.082418   4.213863
    30  O    4.185202   2.644251   4.550691   4.691598   5.571556
    31  C    4.645657   2.991578   5.923206   5.958818   6.957222
    32  H    4.303792   2.880399   6.509520   6.631129   7.483970
    33  H    4.660139   2.905090   6.093658   5.934567   7.143722
    34  H    5.710583   4.075753   6.459773   6.524131   7.511361
                   16         17         18         19         20
    16  C    0.000000
    17  H    1.093609   0.000000
    18  H    1.092613   1.734676   0.000000
    19  C    1.525860   2.172725   2.174969   0.000000
    20  H    2.157270   3.073032   2.539056   1.096559   0.000000
    21  H    2.159311   2.523910   3.075654   1.096413   1.754613
    22  C    2.528178   2.786121   2.770531   1.525994   2.156508
    23  H    2.784302   3.136024   2.579584   2.170299   2.516671
    24  H    3.482864   3.790523   3.779792   2.176300   2.498656
    25  H    2.785979   2.597725   3.110632   2.170729   3.070527
    26  S    4.265194   4.028531   3.573644   5.647947   6.107173
    27  O    5.020154   4.739138   4.213277   6.208048   6.692847
    28  O    5.280546   4.953614   4.757812   6.757376   7.235831
    29  O    2.922910   2.585878   2.441983   4.349247   4.922383
    30  O    4.395521   4.575132   3.528753   5.692549   5.848223
    31  C    5.756396   5.953497   4.822857   6.975694   7.053312
    32  H    6.444278   6.520125   5.594282   7.764093   7.914756
    33  H    6.078143   6.446778   5.142520   7.211327   7.124563
    34  H    6.047234   6.205081   5.037924   7.152701   7.258773
                   21         22         23         24         25
    21  H    0.000000
    22  C    2.157160   0.000000
    23  H    3.070575   1.092178   0.000000
    24  H    2.498666   1.091564   1.767052   0.000000
    25  H    2.518572   1.092322   1.760995   1.766709   0.000000
    26  S    6.377425   5.915306   5.490563   6.992845   5.789819
    27  O    7.024085   6.124395   5.531911   7.153802   5.928445
    28  O    7.360884   7.174895   6.855260   8.263987   6.986857
    29  O    4.987887   4.736490   4.509494   5.826584   4.580388
    30  O    6.535361   6.127992   5.582272   7.141313   6.300371
    31  C    7.872102   7.297817   6.626071   8.273825   7.493996
    32  H    8.595502   8.129068   7.517714   9.142741   8.233161
    33  H    8.123436   7.634319   6.945916   8.551902   7.970226
    34  H    8.111211   7.247833   6.466443   8.190217   7.412890
                   26         27         28         29         30
    26  S    0.000000
    27  O    1.450773   0.000000
    28  O    1.468884   2.465870   0.000000
    29  O    1.462995   2.480399   2.454471   0.000000
    30  O    1.685114   2.489277   2.479931   2.418421   0.000000
    31  C    2.606248   2.862492   3.056982   3.713430   1.420750
    32  H    2.798458   3.110576   2.704172   4.087136   2.076972
    33  H    3.537498   3.892530   3.959129   4.442447   2.025751
    34  H    2.878390   2.565966   3.569674   4.025019   2.072724
                   31         32         33         34
    31  C    0.000000
    32  H    1.094647   0.000000
    33  H    1.090763   1.787102   0.000000
    34  H    1.091022   1.782068   1.785857   0.000000
 Stoichiometry    C9H18N2O4S
 Framework group  C1[X(C9H18N2O4S)]
 Deg. of freedom    96
 Full point group                 C1      NOp   1
 Largest Abelian subgroup         C1      NOp   1
 Largest concise Abelian subgroup C1      NOp   1
                         Standard orientation:                         
 ---------------------------------------------------------------------
 Center     Atomic      Atomic             Coordinates (Angstroms)
 Number     Number       Type             X           Y           Z
 ---------------------------------------------------------------------
      1          6           0       -0.635077    2.255552   -1.039110
      2          6           0        0.714088    2.392057   -0.994322
      3          6           0        0.055820    1.517195    0.905378
      4          7           0       -1.028539    1.723914    0.167364
      5          1           0       -1.344253    2.459484   -1.823141
      6          1           0        1.417428    2.765267   -1.719544
      7          1           0        0.081496    1.025348    1.863519
      8          7           0        1.122370    1.945185    0.240888
      9          6           0        2.502317    1.900539    0.718331
     10          1           0        3.100213    1.392064   -0.033615
     11          1           0        2.850930    2.915572    0.905300
     12          1           0        2.524902    1.320657    1.637581
     13          6           0       -2.386684    1.290449    0.514294
     14          1           0       -2.488880    1.391681    1.597261
     15          1           0       -3.070456    2.011402    0.059572
     16          6           0       -2.699019   -0.128645    0.059937
     17          1           0       -2.514779   -0.218596   -1.014282
     18          1           0       -1.997104   -0.823746    0.526791
     19          6           0       -4.142358   -0.488837    0.399469
     20          1           0       -4.307557   -0.370194    1.477001
     21          1           0       -4.825725    0.211467   -0.095208
     22          6           0       -4.484447   -1.917021   -0.015166
     23          1           0       -3.833241   -2.635192    0.487839
     24          1           0       -5.517837   -2.167023    0.232048
     25          1           0       -4.352511   -2.053000   -1.090931
     26         16           0        1.361162   -1.243850   -0.620595
     27          8           0        1.538355   -2.667879   -0.833876
     28          8           0        2.433876   -0.392451   -1.151655
     29          8           0        0.018921   -0.707382   -0.846303
     30          8           0        1.486450   -1.038408    1.047249
     31          6           0        2.623634   -1.669237    1.619437
     32          1           0        3.541628   -1.326404    1.131581
     33          1           0        2.641194   -1.390806    2.673918
     34          1           0        2.548671   -2.753423    1.523267
 ---------------------------------------------------------------------
 Rotational constants (GHZ):      0.6082824      0.3603561      0.2707778
 Standard basis: 6-311+G(d) (5D, 7F)
 There are   414 symmetry adapted basis functions of A   symmetry.
 Integral buffers will be    131072 words long.
 Raffenetti 2 integral format.
 Two-electron integral symmetry is turned on.
   414 basis functions,   680 primitive gaussians,   430 cartesian basis functions
    67 alpha electrons       67 beta electrons
       nuclear repulsion energy      1430.0136771413 Hartrees.
 NAtoms=   34 NActive=   34 NUniq=   34 SFac= 7.50D-01 NAtFMM=   80 NAOKFM=F Big=F
 One-electron integrals computed using PRISM.
 NBasis=   414 RedAO= T  NBF=   414
 NBsUse=   414 1.00D-06 NBFU=   414
 Initial guess read from the read-write file.
 B after Tr=     0.000000    0.000000    0.000000
         Rot=    1.000000    0.000000    0.000000    0.000000 Ang=   0.00 deg.
 Initial guess orbital symmetries:
       Occupied  (A) (A) (A) (A) (A) (A) (A) (A) (A) (A) (A) (A)
                 (A) (A) (A) (A) (A) (A) (A) (A) (A) (A) (A) (A)
                 (A) (A) (A) (A) (A) (A) (A) (A) (A) (A) (A) (A)
                 (A) (A) (A) (A) (A) (A) (A) (A) (A) (A) (A) (A)
                 (A) (A) (A) (A) (A) (A) (A) (A) (A) (A) (A) (A)
                 (A) (A) (A) (A) (A) (A) (A)
       Virtual   (A) (A) (A) (A) (A) (A) (A) (A) (A) (A) (A) (A)
                 (A) (A) (A) (A) (A) (A) (A) (A) (A) (A) (A) (A)
                 (A) (A) (A) (A) (A) (A) (A) (A) (A) (A) (A) (A)
                 (A) (A) (A) (A) (A) (A) (A) (A) (A) (A) (A) (A)
                 (A) (A) (A) (A) (A) (A) (A) (A) (A) (A) (A) (A)
                 (A) (A) (A) (A) (A) (A) (A) (A) (A) (A) (A) (A)
                 (A) (A) (A) (A) (A) (A) (A) (A) (A) (A) (A) (A)
                 (A) (A) (A) (A) (A) (A) (A) (A) (A) (A) (A) (A)
                 (A) (A) (A) (A) (A) (A) (A) (A) (A) (A) (A) (A)
                 (A) (A) (A) (A) (A) (A) (A) (A) (A) (A) (A) (A)
                 (A) (A) (A) (A) (A) (A) (A) (A) (A) (A) (A) (A)
                 (A) (A) (A) (A) (A) (A) (A) (A) (A) (A) (A) (A)
                 (A) (A) (A) (A) (A) (A) (A) (A) (A) (A) (A) (A)
                 (A) (A) (A) (A) (A) (A) (A) (A) (A) (A) (A) (A)
                 (A) (A) (A) (A) (A) (A) (A) (A) (A) (A) (A) (A)
                 (A) (A) (A) (A) (A) (A) (A) (A) (A) (A) (A) (A)
                 (A) (A) (A) (A) (A) (A) (A) (A) (A) (A) (A) (A)
                 (A) (A) (A) (A) (A) (A) (A) (A) (A) (A) (A) (A)
                 (A) (A) (A) (A) (A) (A) (A) (A) (A) (A) (A) (A)
                 (A) (A) (A) (A) (A) (A) (A) (A) (A) (A) (A) (A)
                 (A) (A) (A) (A) (A) (A) (A) (A) (A) (A) (A) (A)
                 (A) (A) (A) (A) (A) (A) (A) (A) (A) (A) (A) (A)
                 (A) (A) (A) (A) (A) (A) (A) (A) (A) (A) (A) (A)
                 (A) (A) (A) (A) (A) (A) (A) (A) (A) (A) (A) (A)
                 (A) (A) (A) (A) (A) (A) (A) (A) (A) (A) (A) (A)
                 (A) (A) (A) (A) (A) (A) (A) (A) (A) (A) (A) (A)
                 (A) (A) (A) (A) (A) (A) (A) (A) (A) (A) (A) (A)
                 (A) (A) (A) (A) (A) (A) (A) (A) (A) (A) (A) (A)
                 (A) (A) (A) (A) (A) (A) (A) (A) (A) (A) (A)
 Harris functional with IExCor= 1009 diagonalized for initial guess.
 ExpMin= 4.05D-02 ExpMax= 9.34D+04 ExpMxC= 3.17D+03 IAcc=2 IRadAn=         0 AccDes= 0.00D+00
 HarFok:  IExCor= 1009 AccDes= 0.00D+00 IRadAn=         0 IDoV= 1
 ScaDFX=  1.000000  1.000000  1.000000  1.000000
 FoFCou: FMM=F IPFlag=           0 FMFlag=      100000 FMFlg1=           0
         NFxFlg=           0 DoJE=T BraDBF=F KetDBF=T FulRan=T
         Omega=  0.000000  0.000000  1.000000  0.000000  0.000000 ICntrl=     500 IOpCl=  0
         NMat0=    1 NMatS0=    1 NMatT0=    0 NMatD0=    1 NMtDS0=    0 NMtDT0=    0
         I1Cent=           4 NGrid=           0.
 Petite list used in FoFCou.
 Requested convergence on RMS density matrix=1.00D-08 within 128 cycles.
 Requested convergence on MAX density matrix=1.00D-06.
 Requested convergence on             energy=1.00D-06.
 No special actions if energy rises.
