 Entering Gaussian System, Link 0=g09
 Input=BAM_FOR_4.com
 Output=BAM_FOR_4.log
 Initial command:
 /gscratch/pfaendtner/codes/G09/g09/l1.exe /gscratch/pfaendtner/wesley/gaussian/Gau-24346.inp -scrdir=/gscratch/pfaendtner/wesley/gaussian/
 Entering Link 1 = /gscratch/pfaendtner/codes/G09/g09/l1.exe PID=     24347.
  
 Copyright (c) 1988,1990,1992,1993,1995,1998,2003,2009, Gaussian, Inc.
                  All Rights Reserved.
  
 This is part of the Gaussian(R) 09 program.  It is based on
 the Gaussian(R) 03 system (copyright 2003, Gaussian, Inc.),
 the Gaussian(R) 98 system (copyright 1998, Gaussian, Inc.),
 the Gaussian(R) 94 system (copyright 1995, Gaussian, Inc.),
 the Gaussian 92(TM) system (copyright 1992, Gaussian, Inc.),
 the Gaussian 90(TM) system (copyright 1990, Gaussian, Inc.),
 the Gaussian 88(TM) system (copyright 1988, Gaussian, Inc.),
 the Gaussian 86(TM) system (copyright 1986, Carnegie Mellon
 University), and the Gaussian 82(TM) system (copyright 1983,
 Carnegie Mellon University). Gaussian is a federally registered
 trademark of Gaussian, Inc.
  
 This software contains proprietary and confidential information,
 including trade secrets, belonging to Gaussian, Inc.
  
 This software is provided under written license and may be
 used, copied, transmitted, or stored only in accord with that
 written license.
  
 The following legend is applicable only to US Government
 contracts under FAR:
  
                    RESTRICTED RIGHTS LEGEND
  
 Use, reproduction and disclosure by the US Government is
 subject to restrictions as set forth in subparagraphs (a)
 and (c) of the Commercial Computer Software - Restricted
 Rights clause in FAR 52.227-19.
  
 Gaussian, Inc.
 340 Quinnipiac St., Bldg. 40, Wallingford CT 06492
  
  
 ---------------------------------------------------------------
 Warning -- This program may not be used in any manner that
 competes with the business of Gaussian, Inc. or will provide
 assistance to any competitor of Gaussian, Inc.  The licensee
 of this program is prohibited from giving any competitor of
 Gaussian, Inc. access to this program.  By using this program,
 the user acknowledges that Gaussian, Inc. is engaged in the
 business of creating and licensing software in the field of
 computational chemistry and represents and warrants to the
 licensee that it is not a competitor of Gaussian, Inc. and that
 it will not use this program in any manner prohibited above.
 ---------------------------------------------------------------
  

 Cite this work as:
 Gaussian 09, Revision A.02,
 M. J. Frisch, G. W. Trucks, H. B. Schlegel, G. E. Scuseria, 
 M. A. Robb, J. R. Cheeseman, G. Scalmani, V. Barone, B. Mennucci, 
 G. A. Petersson, H. Nakatsuji, M. Caricato, X. Li, H. P. Hratchian, 
 A. F. Izmaylov, J. Bloino, G. Zheng, J. L. Sonnenberg, M. Hada, 
 M. Ehara, K. Toyota, R. Fukuda, J. Hasegawa, M. Ishida, T. Nakajima, 
 Y. Honda, O. Kitao, H. Nakai, T. Vreven, J. A. Montgomery, Jr., 
 J. E. Peralta, F. Ogliaro, M. Bearpark, J. J. Heyd, E. Brothers, 
 K. N. Kudin, V. N. Staroverov, R. Kobayashi, J. Normand, 
 K. Raghavachari, A. Rendell, J. C. Burant, S. S. Iyengar, J. Tomasi, 
 M. Cossi, N. Rega, J. M. Millam, M. Klene, J. E. Knox, J. B. Cross, 
 V. Bakken, C. Adamo, J. Jaramillo, R. Gomperts, R. E. Stratmann, 
 O. Yazyev, A. J. Austin, R. Cammi, C. Pomelli, J. W. Ochterski, 
 R. L. Martin, K. Morokuma, V. G. Zakrzewski, G. A. Voth, 
 P. Salvador, J. J. Dannenberg, S. Dapprich, A. D. Daniels, 
 O. Farkas, J. B. Foresman, J. V. Ortiz, J. Cioslowski, 
 and D. J. Fox, Gaussian, Inc., Wallingford CT, 2009.
 
 ******************************************
 Gaussian 09:  EM64L-G09RevA.02 11-Jun-2009
                 8-Mar-2017 
 ******************************************
 %chk=BAM_FOR_4.chk
 %nprocshared=2
 Will use up to    2 processors via shared memory.
 --------------------------------------
 # opt M062X/6-311+G* geom=connectivity
 --------------------------------------
 1/14=-1,18=20,19=15,26=3,38=1,57=2/1,3;
 2/9=110,12=2,17=6,18=5,40=1/2;
 3/5=4,6=6,7=11,11=2,16=1,25=1,30=1,71=1,74=-55/1,2,3;
 4//1;
 5/5=2,38=5/2;
 6/7=2,8=2,9=2,10=2,28=1/1;
 7//1,2,3,16;
 1/14=-1,18=20,19=15/3(2);
 2/9=110/2;
 99//99;
 2/9=110/2;
 3/5=4,6=6,7=11,11=2,16=1,25=1,30=1,71=1,74=-55/1,2,3;
 4/5=5,16=3/1;
 5/5=2,38=5/2;
 7//1,2,3,16;
 1/14=-1,18=20,19=15/3(-5);
 2/9=110/2;
 6/7=2,8=2,9=2,10=2,19=2,28=1/1;
 99/9=1/99;
 -------------------
 Title Card Required
 -------------------
 Symbolic Z-matrix:
 Charge =  0 Multiplicity = 1
 C                     0.96731  -0.34469   1.91052 
 H                     1.22572  -1.35375   2.15533 
 H                     1.40625  -0.08208   0.9707 
 H                    -0.09688  -0.255     1.84462 
 C                     1.4953    0.60055   3.00567 
 H                     1.23689   1.60961   2.76087 
 H                     1.05635   0.33794   3.94549 
 C                     3.02694   0.47146   3.10052 
 H                     3.46588   0.73406   2.16069 
 H                     3.28535  -0.5376    3.34532 
 C                     3.55493   1.4167    4.19567 
 H                     3.11599   1.15409   5.13549 
 H                     3.29652   2.42575   3.95086 
 N                     5.01695   1.29347   4.2862 
 H                     5.3598    1.90726   4.99734 
 H                     5.25845   0.35043   4.51499 
 H                     5.42718   1.5389    3.40786 
 C                     7.09965   1.06042   4.97014 
 H                     7.62639   1.80533   5.52919 
 O                     5.90007   1.25155   4.64144 
 O                     7.67974  -0.0068    4.64135 
 

 GradGradGradGradGradGradGradGradGradGradGradGradGradGradGradGradGradGrad
 Berny optimization.
 Initialization pass.
                           ----------------------------
                           !    Initial Parameters    !
                           ! (Angstroms and Degrees)  !
 --------------------------                            --------------------------
 ! Name  Definition              Value          Derivative Info.                !
 --------------------------------------------------------------------------------
 ! R1    R(1,2)                  1.07           estimate D2E/DX2                !
 ! R2    R(1,3)                  1.07           estimate D2E/DX2                !
 ! R3    R(1,4)                  1.07           estimate D2E/DX2                !
 ! R4    R(1,5)                  1.54           estimate D2E/DX2                !
 ! R5    R(5,6)                  1.07           estimate D2E/DX2                !
 ! R6    R(5,7)                  1.07           estimate D2E/DX2                !
 ! R7    R(5,8)                  1.54           estimate D2E/DX2                !
 ! R8    R(8,9)                  1.07           estimate D2E/DX2                !
 ! R9    R(8,10)                 1.07           estimate D2E/DX2                !
 ! R10   R(8,11)                 1.54           estimate D2E/DX2                !
 ! R11   R(11,12)                1.07           estimate D2E/DX2                !
 ! R12   R(11,13)                1.07           estimate D2E/DX2                !
 ! R13   R(11,14)                1.47           estimate D2E/DX2                !
 ! R14   R(14,15)                1.0            estimate D2E/DX2                !
 ! R15   R(14,16)                1.0            estimate D2E/DX2                !
 ! R16   R(14,17)                1.0            estimate D2E/DX2                !
 ! R17   R(14,20)                0.9528         estimate D2E/DX2                !
 ! R18   R(15,20)                0.9211         estimate D2E/DX2                !
 ! R19   R(16,20)                1.1134         estimate D2E/DX2                !
 ! R20   R(18,19)                1.07           estimate D2E/DX2                !
 ! R21   R(18,20)                1.2584         estimate D2E/DX2                !
 ! R22   R(18,21)                1.2584         estimate D2E/DX2                !
 ! A1    A(2,1,3)              109.4712         estimate D2E/DX2                !
 ! A2    A(2,1,4)              109.4712         estimate D2E/DX2                !
 ! A3    A(2,1,5)              109.4712         estimate D2E/DX2                !
 ! A4    A(3,1,4)              109.4712         estimate D2E/DX2                !
 ! A5    A(3,1,5)              109.4712         estimate D2E/DX2                !
 ! A6    A(4,1,5)              109.4712         estimate D2E/DX2                !
 ! A7    A(1,5,6)              109.4712         estimate D2E/DX2                !
 ! A8    A(1,5,7)              109.4712         estimate D2E/DX2                !
 ! A9    A(1,5,8)              109.4712         estimate D2E/DX2                !
 ! A10   A(6,5,7)              109.4712         estimate D2E/DX2                !
 ! A11   A(6,5,8)              109.4712         estimate D2E/DX2                !
 ! A12   A(7,5,8)              109.4712         estimate D2E/DX2                !
 ! A13   A(5,8,9)              109.4712         estimate D2E/DX2                !
 ! A14   A(5,8,10)             109.4712         estimate D2E/DX2                !
 ! A15   A(5,8,11)             109.4712         estimate D2E/DX2                !
 ! A16   A(9,8,10)             109.4712         estimate D2E/DX2                !
 ! A17   A(9,8,11)             109.4712         estimate D2E/DX2                !
 ! A18   A(10,8,11)            109.4712         estimate D2E/DX2                !
 ! A19   A(8,11,12)            109.4712         estimate D2E/DX2                !
 ! A20   A(8,11,13)            109.4712         estimate D2E/DX2                !
 ! A21   A(8,11,14)            109.4712         estimate D2E/DX2                !
 ! A22   A(12,11,13)           109.4712         estimate D2E/DX2                !
 ! A23   A(12,11,14)           109.4712         estimate D2E/DX2                !
 ! A24   A(13,11,14)           109.4712         estimate D2E/DX2                !
 ! A25   A(11,14,15)           109.4712         estimate D2E/DX2                !
 ! A26   A(11,14,16)           109.4712         estimate D2E/DX2                !
 ! A27   A(11,14,17)           109.4712         estimate D2E/DX2                !
 ! A28   A(11,14,20)           161.5277         estimate D2E/DX2                !
 ! A29   A(15,14,16)           109.4712         estimate D2E/DX2                !
 ! A30   A(15,14,17)           109.4712         estimate D2E/DX2                !
 ! A31   A(16,14,17)           109.4712         estimate D2E/DX2                !
 ! A32   A(17,14,20)            87.5958         estimate D2E/DX2                !
 ! A33   A(19,18,20)           120.0            estimate D2E/DX2                !
 ! A34   A(19,18,21)           120.0            estimate D2E/DX2                !
 ! A35   A(20,18,21)           120.0            estimate D2E/DX2                !
 ! A36   A(14,20,18)           170.9678         estimate D2E/DX2                !
 ! A37   A(15,20,16)           106.3804         estimate D2E/DX2                !
 ! A38   A(15,20,18)           124.4929         estimate D2E/DX2                !
 ! A39   A(16,20,18)           117.133          estimate D2E/DX2                !
 ! D1    D(2,1,5,6)            180.0            estimate D2E/DX2                !
 ! D2    D(2,1,5,7)            -60.0            estimate D2E/DX2                !
 ! D3    D(2,1,5,8)             60.0            estimate D2E/DX2                !
 ! D4    D(3,1,5,6)             60.0            estimate D2E/DX2                !
 ! D5    D(3,1,5,7)           -180.0            estimate D2E/DX2                !
 ! D6    D(3,1,5,8)            -60.0            estimate D2E/DX2                !
 ! D7    D(4,1,5,6)            -60.0            estimate D2E/DX2                !
 ! D8    D(4,1,5,7)             60.0            estimate D2E/DX2                !
 ! D9    D(4,1,5,8)            180.0            estimate D2E/DX2                !
 ! D10   D(1,5,8,9)             60.0            estimate D2E/DX2                !
 ! D11   D(1,5,8,10)           -60.0            estimate D2E/DX2                !
 ! D12   D(1,5,8,11)           180.0            estimate D2E/DX2                !
 ! D13   D(6,5,8,9)            -60.0            estimate D2E/DX2                !
 ! D14   D(6,5,8,10)           180.0            estimate D2E/DX2                !
 ! D15   D(6,5,8,11)            60.0            estimate D2E/DX2                !
 ! D16   D(7,5,8,9)            180.0            estimate D2E/DX2                !
 ! D17   D(7,5,8,10)            60.0            estimate D2E/DX2                !
 ! D18   D(7,5,8,11)           -60.0            estimate D2E/DX2                !
 ! D19   D(5,8,11,12)           60.0            estimate D2E/DX2                !
 ! D20   D(5,8,11,13)          -60.0            estimate D2E/DX2                !
 ! D21   D(5,8,11,14)          180.0            estimate D2E/DX2                !
 ! D22   D(9,8,11,12)          180.0            estimate D2E/DX2                !
 ! D23   D(9,8,11,13)           60.0            estimate D2E/DX2                !
 ! D24   D(9,8,11,14)          -60.0            estimate D2E/DX2                !
 ! D25   D(10,8,11,12)         -60.0            estimate D2E/DX2                !
 ! D26   D(10,8,11,13)         180.0            estimate D2E/DX2                !
 ! D27   D(10,8,11,14)          60.0            estimate D2E/DX2                !
 ! D28   D(8,11,14,15)         180.0            estimate D2E/DX2                !
 ! D29   D(8,11,14,16)         -60.0            estimate D2E/DX2                !
 ! D30   D(8,11,14,17)          60.0            estimate D2E/DX2                !
 ! D31   D(8,11,14,20)        -143.3745         estimate D2E/DX2                !
 ! D32   D(12,11,14,15)        -60.0            estimate D2E/DX2                !
 ! D33   D(12,11,14,16)         60.0            estimate D2E/DX2                !
 ! D34   D(12,11,14,17)        180.0            estimate D2E/DX2                !
 ! D35   D(12,11,14,20)        -23.3745         estimate D2E/DX2                !
 ! D36   D(13,11,14,15)         60.0            estimate D2E/DX2                !
 ! D37   D(13,11,14,16)        180.0            estimate D2E/DX2                !
 ! D38   D(13,11,14,17)        -60.0            estimate D2E/DX2                !
 ! D39   D(13,11,14,20)         96.6255         estimate D2E/DX2                !
 ! D40   D(11,14,20,18)        143.8995         estimate D2E/DX2                !
 ! D41   D(17,14,20,18)        -58.0864         estimate D2E/DX2                !
 ! D42   D(19,18,20,14)        158.6669         estimate D2E/DX2                !
 ! D43   D(19,18,20,15)        -14.2332         estimate D2E/DX2                !
 ! D44   D(19,18,20,16)       -151.6745         estimate D2E/DX2                !
 ! D45   D(21,18,20,14)        -21.3331         estimate D2E/DX2                !
 ! D46   D(21,18,20,15)        165.7668         estimate D2E/DX2                !
 ! D47   D(21,18,20,16)         28.3255         estimate D2E/DX2                !
 --------------------------------------------------------------------------------
 Trust Radius=3.00D-01 FncErr=1.00D-07 GrdErr=1.00D-06
 Number of steps in this run= 118 maximum allowed number of steps= 126.
 GradGradGradGradGradGradGradGradGradGradGradGradGradGradGradGradGradGrad

                          Input orientation:                          
 ---------------------------------------------------------------------
 Center     Atomic      Atomic             Coordinates (Angstroms)
 Number     Number       Type             X           Y           Z
 ---------------------------------------------------------------------
      1          6           0        0.967311   -0.344691    1.910521
      2          1           0        1.225718   -1.353748    2.155326
      3          1           0        1.406253   -0.082084    0.970697
      4          1           0       -0.096885   -0.254998    1.844622
      5          6           0        1.495296    0.600548    3.005671
      6          1           0        1.236889    1.609605    2.760865
      7          1           0        1.056354    0.337942    3.945494
      8          6           0        3.026942    0.471457    3.100515
      9          1           0        3.465884    0.734064    2.160692
     10          1           0        3.285349   -0.537600    3.345321
     11          6           0        3.554927    1.416696    4.195666
     12          1           0        3.115985    1.154090    5.135489
     13          1           0        3.296520    2.425753    3.950860
     14          7           0        5.016953    1.293473    4.286199
     15          1           0        5.359801    1.907264    4.997336
     16          1           0        5.258455    0.350429    4.514989
     17          1           0        5.427179    1.538900    3.407860
     18          6           0        7.099649    1.060415    4.970136
     19          1           0        7.626389    1.805334    5.529190
     20          8           0        5.900068    1.251555    4.641437
     21          8           0        7.679744   -0.006804    4.641346
 ---------------------------------------------------------------------
                    Distance matrix (angstroms):
                    1          2          3          4          5
     1  C    0.000000
     2  H    1.070000   0.000000
     3  H    1.070000   1.747303   0.000000
     4  H    1.070000   1.747303   1.747303   0.000000
     5  C    1.540000   2.148263   2.148263   2.148263   0.000000
     6  H    2.148263   3.024610   2.468846   2.468846   1.070000
     7  H    2.148263   2.468846   3.024610   2.468846   1.070000
     8  C    2.514809   2.732978   2.732978   3.444314   1.540000
     9  H    2.732978   3.062243   2.514809   3.710993   2.148263
    10  H    2.732978   2.514809   3.062243   3.710993   2.148263
    11  C    3.875582   4.154945   4.154945   4.653783   2.514809
    12  H    4.154945   4.329403   4.668704   4.810184   2.732978
    13  H    4.154945   4.668704   4.329403   4.810184   2.732978
    14  N    4.972628   5.091352   5.091352   5.874555   3.810770
    15  H    5.821830   5.983466   5.983466   6.662612   4.539673
    16  H    5.067580   4.973450   5.252479   6.014737   4.062261
    17  H    5.067580   5.252479   4.973450   6.014737   4.062261
    18  C    6.995795   6.946539   7.050927   7.955454   5.956456
    19  H    7.877861   7.895021   7.939288   8.801702   6.738691
    20  O    5.859864   5.900670   5.953764   6.786407   4.743581
    21  O    7.254539   7.046205   7.268839   8.267963   6.425862
                    6          7          8          9         10
     6  H    0.000000
     7  H    1.747303   0.000000
     8  C    2.148263   2.148263   0.000000
     9  H    2.468846   3.024610   1.070000   0.000000
    10  H    3.024610   2.468846   1.070000   1.747303   0.000000
    11  C    2.732978   2.732978   1.540000   2.148263   2.148263
    12  H    3.062243   2.514809   2.148263   3.024610   2.468846
    13  H    2.514809   3.062243   2.148263   2.468846   3.024610
    14  N    4.088455   4.088455   2.457987   2.690081   2.690081
    15  H    4.699872   4.699872   3.331921   3.606919   3.606919
    16  H    4.564588   4.240535   2.644813   2.983823   2.459648
    17  H    4.240535   4.564588   2.644813   2.459648   2.983823
    18  C    6.289232   6.171975   4.519878   4.604750   4.443260
    19  H    6.966178   6.915684   5.369599   5.459322   5.394743
    20  O    5.040832   4.978011   3.352290   3.513850   3.423120
    21  O    6.903576   6.668760   4.924577   4.945618   4.612172
                   11         12         13         14         15
    11  C    0.000000
    12  H    1.070000   0.000000
    13  H    1.070000   1.747303   0.000000
    14  N    1.470000   2.086720   2.086720   0.000000
    15  H    2.034920   2.370879   2.370879   1.000000   0.000000
    16  H    2.034920   2.370879   2.911082   1.000000   1.632993
    17  H    2.034920   2.911082   2.370879   1.000000   1.632993
    18  C    3.645791   3.988194   4.167356   2.204474   1.935191
    19  H    4.301875   4.574151   4.650140   2.935333   2.330382
    20  O    2.392837   2.829259   2.938384   0.952808   0.921145
    21  O    4.386239   4.734949   5.060312   2.984511   3.028618
                   16         17         18         19         20
    16  H    0.000000
    17  H    1.632993   0.000000
    18  C    2.025151   2.338121   0.000000
    19  H    2.958456   3.067173   1.070000   0.000000
    20  O    1.113412   1.352000   1.258400   2.018653   0.000000
    21  O    2.450759   2.997455   1.258400   2.018653   2.179613
                   21
    21  O    0.000000
 Stoichiometry    C5H13NO2
 Framework group  C1[X(C5H13NO2)]
 Deg. of freedom    57
 Full point group                 C1      NOp   1
 Largest Abelian subgroup         C1      NOp   1
 Largest concise Abelian subgroup C1      NOp   1
                         Standard orientation:                         
 ---------------------------------------------------------------------
 Center     Atomic      Atomic             Coordinates (Angstroms)
 Number     Number       Type             X           Y           Z
 ---------------------------------------------------------------------
      1          6           0       -3.880929    0.823348    0.060724
      2          1           0       -3.658552    1.626157   -0.610802
      3          1           0       -3.806795    1.171489    1.069784
      4          1           0       -4.874060    0.469782   -0.122533
      5          6           0       -2.878319   -0.324289   -0.161319
      6          1           0       -3.100697   -1.127097    0.510206
      7          1           0       -2.952453   -0.672430   -1.170379
      8          6           0       -1.448954    0.184582    0.102434
      9          1           0       -1.374820    0.532723    1.111494
     10          1           0       -1.226576    0.987390   -0.569091
     11          6           0       -0.446344   -0.963055   -0.119609
     12          1           0       -0.520478   -1.311196   -1.128669
     13          1           0       -0.668721   -1.765863    0.551916
     14          7           0        0.918050   -0.477315    0.132156
     15          1           0        1.569096   -1.222534   -0.012028
     16          1           0        1.125880    0.272973   -0.495438
     17          1           0        0.987335   -0.151950    1.075202
     18          6           0        3.066466    0.003032    0.016901
     19          1           0        3.842689   -0.726995    0.114045
     20          8           0        1.859924   -0.351643    0.061983
     21          8           0        3.360111    1.216274   -0.142430
 ---------------------------------------------------------------------
 Rotational constants (GHZ):      6.9330359      0.6562875      0.6126995
 Standard basis: 6-311+G(d) (5D, 7F)
 There are   215 symmetry adapted basis functions of A   symmetry.
 Integral buffers will be    131072 words long.
 Raffenetti 2 integral format.
 Two-electron integral symmetry is turned on.
   215 basis functions,   353 primitive gaussians,   223 cartesian basis functions
    33 alpha electrons       33 beta electrons
       nuclear repulsion energy       419.0098768418 Hartrees.
 NAtoms=   21 NActive=   21 NUniq=   21 SFac= 7.50D-01 NAtFMM=   80 NAOKFM=F Big=F
 One-electron integrals computed using PRISM.
 NBasis=   215 RedAO= T  NBF=   215
 NBsUse=   215 1.00D-06 NBFU=   215
 Harris functional with IExCor= 1009 diagonalized for initial guess.
 ExpMin= 4.38D-02 ExpMax= 8.59D+03 ExpMxC= 1.30D+03 IAcc=2 IRadAn=         0 AccDes= 0.00D+00
 HarFok:  IExCor= 1009 AccDes= 0.00D+00 IRadAn=         0 IDoV= 1
 ScaDFX=  1.000000  1.000000  1.000000  1.000000
 FoFCou: FMM=F IPFlag=           0 FMFlag=      100000 FMFlg1=           0
         NFxFlg=           0 DoJE=T BraDBF=F KetDBF=T FulRan=T
         Omega=  0.000000  0.000000  1.000000  0.000000  0.000000 ICntrl=     500 IOpCl=  0
         NMat0=    1 NMatS0=    1 NMatT0=    0 NMatD0=    1 NMtDS0=    0 NMtDT0=    0
         I1Cent=           4 NGrid=           0.
 Petite list used in FoFCou.
 Initial guess orbital symmetries:
       Occupied  (A) (A) (A) (A) (A) (A) (A) (A) (A) (A) (A) (A)
                 (A) (A) (A) (A) (A) (A) (A) (A) (A) (A) (A) (A)
                 (A) (A) (A) (A) (A) (A) (A) (A) (A)
       Virtual   (A) (A) (A) (A) (A) (A) (A) (A) (A) (A) (A) (A)
                 (A) (A) (A) (A) (A) (A) (A) (A) (A) (A) (A) (A)
                 (A) (A) (A) (A) (A) (A) (A) (A) (A) (A) (A) (A)
                 (A) (A) (A) (A) (A) (A) (A) (A) (A) (A) (A) (A)
                 (A) (A) (A) (A) (A) (A) (A) (A) (A) (A) (A) (A)
                 (A) (A) (A) (A) (A) (A) (A) (A) (A) (A) (A) (A)
                 (A) (A) (A) (A) (A) (A) (A) (A) (A) (A) (A) (A)
                 (A) (A) (A) (A) (A) (A) (A) (A) (A) (A) (A) (A)
                 (A) (A) (A) (A) (A) (A) (A) (A) (A) (A) (A) (A)
                 (A) (A) (A) (A) (A) (A) (A) (A) (A) (A) (A) (A)
                 (A) (A) (A) (A) (A) (A) (A) (A) (A) (A) (A) (A)
                 (A) (A) (A) (A) (A) (A) (A) (A) (A) (A) (A) (A)
                 (A) (A) (A) (A) (A) (A) (A) (A) (A) (A) (A) (A)
                 (A) (A) (A) (A) (A) (A) (A) (A) (A) (A) (A) (A)
                 (A) (A) (A) (A) (A) (A) (A) (A) (A) (A) (A) (A)
                 (A) (A)
 The electronic state of the initial guess is 1-A.
 Requested convergence on RMS density matrix=1.00D-08 within 128 cycles.
 Requested convergence on MAX density matrix=1.00D-06.
 Requested convergence on             energy=1.00D-06.
 No special actions if energy rises.
 SCF Done:  E(RM062X) =  -402.214301643     A.U. after   17 cycles
             Convg  =    0.9335D-08             -V/T =  1.9909

 **********************************************************************

            Population analysis using the SCF density.

 **********************************************************************

 Orbital symmetries:
       Occupied  (A) (A) (A) (A) (A) (A) (A) (A) (A) (A) (A) (A)
                 (A) (A) (A) (A) (A) (A) (A) (A) (A) (A) (A) (A)
                 (A) (A) (A) (A) (A) (A) (A) (A) (A)
       Virtual   (A) (A) (A) (A) (A) (A) (A) (A) (A) (A) (A) (A)
                 (A) (A) (A) (A) (A) (A) (A) (A) (A) (A) (A) (A)
                 (A) (A) (A) (A) (A) (A) (A) (A) (A) (A) (A) (A)
                 (A) (A) (A) (A) (A) (A) (A) (A) (A) (A) (A) (A)
                 (A) (A) (A) (A) (A) (A) (A) (A) (A) (A) (A) (A)
                 (A) (A) (A) (A) (A) (A) (A) (A) (A) (A) (A) (A)
                 (A) (A) (A) (A) (A) (A) (A) (A) (A) (A) (A) (A)
                 (A) (A) (A) (A) (A) (A) (A) (A) (A) (A) (A) (A)
                 (A) (A) (A) (A) (A) (A) (A) (A) (A) (A) (A) (A)
                 (A) (A) (A) (A) (A) (A) (A) (A) (A) (A) (A) (A)
                 (A) (A) (A) (A) (A) (A) (A) (A) (A) (A) (A) (A)
                 (A) (A) (A) (A) (A) (A) (A) (A) (A) (A) (A) (A)
                 (A) (A) (A) (A) (A) (A) (A) (A) (A) (A) (A) (A)
                 (A) (A) (A) (A) (A) (A) (A) (A) (A) (A) (A) (A)
                 (A) (A) (A) (A) (A) (A) (A) (A) (A) (A) (A) (A)
                 (A) (A)
 The electronic state is 1-A.
 Alpha  occ. eigenvalues --  -19.81687 -19.61449 -14.93375 -10.71192 -10.60129
 Alpha  occ. eigenvalues --  -10.54820 -10.54712 -10.52884  -1.81535  -1.21186
 Alpha  occ. eigenvalues --   -1.09937  -1.05922  -0.98109  -0.97814  -0.89803
 Alpha  occ. eigenvalues --   -0.79664  -0.69529  -0.69392  -0.67136  -0.58966
 Alpha  occ. eigenvalues --   -0.54509  -0.53656  -0.51835  -0.49563  -0.47546
 Alpha  occ. eigenvalues --   -0.45343  -0.42290  -0.42023  -0.41965  -0.38212
 Alpha  occ. eigenvalues --   -0.37577  -0.34351  -0.17380
 Alpha virt. eigenvalues --   -0.01600   0.00890   0.01203   0.02398   0.03111
 Alpha virt. eigenvalues --    0.03815   0.04405   0.05194   0.05327   0.05913
 Alpha virt. eigenvalues --    0.06520   0.07529   0.08124   0.08671   0.09567
 Alpha virt. eigenvalues --    0.10355   0.10871   0.11728   0.12090   0.13613
 Alpha virt. eigenvalues --    0.14324   0.15125   0.17111   0.18116   0.18559
 Alpha virt. eigenvalues --    0.18768   0.19519   0.20698   0.21390   0.21463
 Alpha virt. eigenvalues --    0.22997   0.23259   0.24392   0.24442   0.24787
 Alpha virt. eigenvalues --    0.24997   0.25649   0.27229   0.27942   0.29023
 Alpha virt. eigenvalues --    0.29431   0.30251   0.30802   0.30942   0.32104
 Alpha virt. eigenvalues --    0.34599   0.35533   0.36700   0.39891   0.40520
 Alpha virt. eigenvalues --    0.42204   0.42581   0.43790   0.44562   0.46837
 Alpha virt. eigenvalues --    0.49194   0.51074   0.52980   0.54470   0.56606
 Alpha virt. eigenvalues --    0.58071   0.59411   0.62221   0.63186   0.65351
 Alpha virt. eigenvalues --    0.67297   0.67745   0.68362   0.68924   0.70440
 Alpha virt. eigenvalues --    0.71836   0.72495   0.73168   0.73932   0.75951
 Alpha virt. eigenvalues --    0.77736   0.78142   0.79371   0.79899   0.82563
 Alpha virt. eigenvalues --    0.84037   0.89878   0.92865   0.98178   1.02043
 Alpha virt. eigenvalues --    1.03358   1.04668   1.05261   1.07534   1.13025
 Alpha virt. eigenvalues --    1.15547   1.16550   1.19703   1.21476   1.27631
 Alpha virt. eigenvalues --    1.31567   1.35752   1.37801   1.38335   1.45504
 Alpha virt. eigenvalues --    1.47334   1.51234   1.54397   1.55415   1.58561
 Alpha virt. eigenvalues --    1.60609   1.61718   1.62613   1.64986   1.68236
 Alpha virt. eigenvalues --    1.71193   1.74035   1.74878   1.81348   1.83002
 Alpha virt. eigenvalues --    1.83671   1.88334   1.91448   1.92712   1.96087
 Alpha virt. eigenvalues --    1.98801   2.03977   2.12029   2.13535   2.23051
 Alpha virt. eigenvalues --    2.26748   2.46215   2.49918   2.53359   2.54593
 Alpha virt. eigenvalues --    2.56309   2.58417   2.58566   2.59812   2.61844
 Alpha virt. eigenvalues --    2.62630   2.66138   2.68331   2.72864   2.78327
 Alpha virt. eigenvalues --    2.91683   2.94604   2.95838   3.00938   3.01486
 Alpha virt. eigenvalues --    3.02163   3.06266   3.17028   3.20296   3.22241
 Alpha virt. eigenvalues --    3.27983   3.30370   3.31762   3.35657   3.36469
 Alpha virt. eigenvalues --    3.38806   3.48953   3.58730   3.69662   3.82696
 Alpha virt. eigenvalues --    3.87435   3.96059   4.05590   4.17651   4.18750
 Alpha virt. eigenvalues --    4.32425   4.43623   4.95882   5.12473   5.17769
 Alpha virt. eigenvalues --    5.22632   5.25390   5.71983   6.39991  23.55261
 Alpha virt. eigenvalues --   23.68953  23.74218  23.78724  23.90714  36.17599
 Alpha virt. eigenvalues --   50.03212  50.50010
          Condensed to atoms (all electrons):
              1          2          3          4          5          6
     1  C    6.618842   0.364276   0.368661   0.371357  -0.115925  -0.071040
     2  H    0.364276   0.452949  -0.035212  -0.024234   0.018536   0.006949
     3  H    0.368661  -0.035212   0.454391  -0.024499   0.017957  -0.008764
     4  H    0.371357  -0.024234  -0.024499   0.435334  -0.097635  -0.003510
     5  C   -0.115925   0.018536   0.017957  -0.097635   6.454972   0.412355
     6  H   -0.071040   0.006949  -0.008764  -0.003510   0.412355   0.462596
     7  H   -0.059059  -0.008641   0.006823  -0.003540   0.418606  -0.037989
     8  C   -0.074623  -0.045632  -0.048841   0.076216  -0.579758  -0.034223
     9  H    0.014633  -0.000336   0.003566  -0.000280  -0.053828  -0.006540
    10  H   -0.002873   0.003774  -0.000355  -0.000268  -0.067961   0.005999
    11  C   -0.370406   0.006440   0.006357   0.002941   0.230109   0.009200
    12  H    0.002880   0.000070  -0.000047  -0.000009  -0.038510   0.000616
    13  H    0.000414  -0.000043   0.000041   0.000001  -0.049291   0.003012
    14  N   -0.189413   0.000096  -0.000021   0.000560  -0.405733   0.003307
    15  H    0.006766  -0.000006   0.000001  -0.000001   0.044444  -0.000223
    16  H    0.030037  -0.000102   0.000006  -0.000007   0.089391  -0.000416
    17  H    0.017300   0.000000  -0.000033  -0.000008   0.045424  -0.000191
    18  C    0.018339  -0.000077  -0.000025  -0.000009   0.043099  -0.000552
    19  H   -0.000047   0.000000   0.000000   0.000000  -0.000169   0.000000
    20  O    0.046810  -0.000080  -0.000049  -0.000019   0.083339  -0.001340
    21  O   -0.000836   0.000001   0.000000   0.000000  -0.002716   0.000003
              7          8          9         10         11         12
     1  C   -0.059059  -0.074623   0.014633  -0.002873  -0.370406   0.002880
     2  H   -0.008641  -0.045632  -0.000336   0.003774   0.006440   0.000070
     3  H    0.006823  -0.048841   0.003566  -0.000355   0.006357  -0.000047
     4  H   -0.003540   0.076216  -0.000280  -0.000268   0.002941  -0.000009
     5  C    0.418606  -0.579758  -0.053828  -0.067961   0.230109  -0.038510
     6  H   -0.037989  -0.034223  -0.006540   0.005999   0.009200   0.000616
     7  H    0.460701  -0.042673   0.005654  -0.006567   0.000163   0.002211
     8  C   -0.042673   6.990969   0.453633   0.460360  -0.390899   0.000367
     9  H    0.005654   0.453633   0.421811  -0.032443  -0.079636   0.003773
    10  H   -0.006567   0.460360  -0.032443   0.414497  -0.052534  -0.004939
    11  C    0.000163  -0.390899  -0.079636  -0.052534   6.593215   0.383403
    12  H    0.002211   0.000367   0.003773  -0.004939   0.383403   0.410535
    13  H    0.000268  -0.011188  -0.005944   0.004225   0.435608  -0.028515
    14  N    0.005693  -0.626835  -0.004587   0.007338   0.019087  -0.017391
    15  H   -0.000087   0.061286   0.000419  -0.000809   0.063614  -0.005232
    16  H   -0.000493   0.110550  -0.000210   0.002398   0.088122  -0.023326
    17  H   -0.000209   0.052081   0.005160  -0.000622   0.027823   0.003648
    18  C   -0.000314   0.075577   0.001287  -0.001925   0.079085  -0.000841
    19  H    0.000000  -0.000370   0.000003  -0.000006  -0.005842   0.000077
    20  O   -0.000791   0.154132   0.004545  -0.009052  -0.173224   0.021020
    21  O    0.000000  -0.009160  -0.000003  -0.000023  -0.025686  -0.000150
             13         14         15         16         17         18
     1  C    0.000414  -0.189413   0.006766   0.030037   0.017300   0.018339
     2  H   -0.000043   0.000096  -0.000006  -0.000102   0.000000  -0.000077
     3  H    0.000041  -0.000021   0.000001   0.000006  -0.000033  -0.000025
     4  H    0.000001   0.000560  -0.000001  -0.000007  -0.000008  -0.000009
     5  C   -0.049291  -0.405733   0.044444   0.089391   0.045424   0.043099
     6  H    0.003012   0.003307  -0.000223  -0.000416  -0.000191  -0.000552
     7  H    0.000268   0.005693  -0.000087  -0.000493  -0.000209  -0.000314
     8  C   -0.011188  -0.626835   0.061286   0.110550   0.052081   0.075577
     9  H   -0.005944  -0.004587   0.000419  -0.000210   0.005160   0.001287
    10  H    0.004225   0.007338  -0.000809   0.002398  -0.000622  -0.001925
    11  C    0.435608   0.019087   0.063614   0.088122   0.027823   0.079085
    12  H   -0.028515  -0.017391  -0.005232  -0.023326   0.003648  -0.000841
    13  H    0.420556  -0.036494  -0.007308   0.006492  -0.015111  -0.004128
    14  N   -0.036494  13.669586  -0.267168  -0.560304  -0.156391  -0.608993
    15  H   -0.007308  -0.267168   0.641220   0.216391   0.111672   0.194243
    16  H    0.006492  -0.560304   0.216391   1.123076   0.093886   0.223302
    17  H   -0.015111  -0.156391   0.111672   0.093886   0.570955   0.130075
    18  C   -0.004128  -0.608993   0.194243   0.223302   0.130075   5.632716
    19  H   -0.000039   0.077183   0.020374   0.003185   0.000968   0.424960
    20  O   -0.003787  -4.100236  -0.314008  -0.487375  -0.086465  -0.096409
    21  O    0.000333   0.094591  -0.003432   0.017683  -0.019040   0.358545
             19         20         21
     1  C   -0.000047   0.046810  -0.000836
     2  H    0.000000  -0.000080   0.000001
     3  H    0.000000  -0.000049   0.000000
     4  H    0.000000  -0.000019   0.000000
     5  C   -0.000169   0.083339  -0.002716
     6  H    0.000000  -0.001340   0.000003
     7  H    0.000000  -0.000791   0.000000
     8  C   -0.000370   0.154132  -0.009160
     9  H    0.000003   0.004545  -0.000003
    10  H   -0.000006  -0.009052  -0.000023
    11  C   -0.005842  -0.173224  -0.025686
    12  H    0.000077   0.021020  -0.000150
    13  H   -0.000039  -0.003787   0.000333
    14  N    0.077183  -4.100236   0.094591
    15  H    0.020374  -0.314008  -0.003432
    16  H    0.003185  -0.487375   0.017683
    17  H    0.000968  -0.086465  -0.019040
    18  C    0.424960  -0.096409   0.358545
    19  H    0.446468  -0.199802  -0.037365
    20  O   -0.199802  12.993631  -0.137747
    21  O   -0.037365  -0.137747   8.096731
 Mulliken atomic charges:
              1
     1  C   -0.976092
     2  H    0.261273
     3  H    0.260042
     4  H    0.267613
     5  C   -0.446704
     6  H    0.260752
     7  H    0.260245
     8  C   -0.570969
     9  H    0.269323
    10  H    0.281790
    11  C   -0.846942
    12  H    0.290361
    13  H    0.290898
    14  N    0.096126
    15  H    0.237844
    16  H    0.067714
    17  H    0.219080
    18  C   -0.467955
    19  H    0.270424
    20  O    0.306907
    21  O   -0.331729
 Sum of Mulliken atomic charges =   0.00000
 Mulliken charges with hydrogens summed into heavy atoms:
              1
     1  C   -0.187165
     5  C    0.074293
     8  C   -0.019856
    11  C   -0.265683
    14  N    0.382919
    18  C   -0.197531
    20  O    0.544750
    21  O   -0.331729
 Sum of Mulliken charges with hydrogens summed into heavy atoms =   0.00000
 Electronic spatial extent (au):  <R**2>=           1827.7144
 Charge=              0.0000 electrons
 Dipole moment (field-independent basis, Debye):
    X=             -3.3426    Y=             -2.8467    Z=             -0.3402  Tot=              4.4037
 Quadrupole moment (field-independent basis, Debye-Ang):
   XX=            -59.1576   YY=            -60.8509   ZZ=            -56.0548
   XY=             -8.7411   XZ=             -0.0924   YZ=              1.6708
 Traceless Quadrupole moment (field-independent basis, Debye-Ang):
   XX=             -0.4699   YY=             -2.1631   ZZ=              2.6330
   XY=             -8.7411   XZ=             -0.0924   YZ=              1.6708
 Octapole moment (field-independent basis, Debye-Ang**2):
  XXX=            -18.4243  YYY=              6.4935  ZZZ=             -4.0122  XYY=            -14.2907
  XXY=            -36.9627  XXZ=             -0.0118  XZZ=             -3.9800  YZZ=              3.2150
  YYZ=             -1.3051  XYZ=              4.3547
 Hexadecapole moment (field-independent basis, Debye-Ang**3):
 XXXX=          -2183.8986 YYYY=           -295.5010 ZZZZ=           -127.1871 XXXY=           -109.4811
 XXXZ=              7.1829 YYYX=             12.9054 YYYZ=              1.9237 ZZZX=             -9.3124
 ZZZY=              6.7192 XXYY=           -450.1292 XXZZ=           -382.3783 YYZZ=            -67.1932
 XXYZ=              9.6176 YYXZ=             -1.0778 ZZXY=              7.3540
 N-N= 4.190098768418D+02 E-N=-1.777169173640D+03  KE= 4.059267585760D+02
 Calling FoFJK, ICntrl=      2127 FMM=F ISym2X=0 I1Cent= 0 IOpClX= 0 NMat=1 NMatS=1 NMatT=0.
 ***** Axes restored to original set *****
 -------------------------------------------------------------------
 Center     Atomic                   Forces (Hartrees/Bohr)
 Number     Number              X              Y              Z
 -------------------------------------------------------------------
      1        6           0.004692357    0.017409996    0.019355599
      2        1           0.002262535   -0.015019069    0.000821838
      3        1           0.004592644    0.001349990   -0.014476875
      4        1          -0.014850580   -0.001559321   -0.003995589
      5        6           0.018577440   -0.019476184   -0.019112522
      6        1          -0.005839617    0.015410757   -0.001048179
      7        1          -0.007803990   -0.001095505    0.014361991
      8        6          -0.015903091    0.019346359    0.020974422
      9        1           0.008536819    0.002063905   -0.014888529
     10        1           0.006160697   -0.015394862    0.001840461
     11        6          -0.067230076   -0.023552838   -0.022656117
     12        1          -0.001513883   -0.001842486    0.016754123
     13        1           0.002937869    0.017474225    0.000851826
     14        7          -1.378947413    0.006729519   -0.726131444
     15        1          -0.088493765    0.315509728    0.229941252
     16        1          -0.130907570   -0.269087531   -0.023770422
     17        1          -0.066791576    0.040822954   -0.159348274
     18        6           0.135697684   -0.107694053   -0.035422573
     19        1          -0.009325907    0.019650327    0.008324955
     20        8           1.625764286   -0.046502234    0.682670591
     21        8          -0.021614863    0.045456323    0.024953465
 -------------------------------------------------------------------
 Cartesian Forces:  Max     1.625764286 RMS     0.305188752

 GradGradGradGradGradGradGradGradGradGradGradGradGradGradGradGradGradGrad
 Berny optimization.
 Internal  Forces:  Max     1.135739660 RMS     0.141864491
 Search for a local minimum.
 Step number   1 out of a maximum of  118
 All quantities printed in internal units (Hartrees-Bohrs-Radians)
 Mixed Optimization -- RFO/linear search
 Second derivative matrix not updated -- first step.
     Eigenvalues ---    0.00237   0.00237   0.00237   0.00766   0.02712
     Eigenvalues ---    0.03565   0.03565   0.03669   0.03840   0.03840
     Eigenvalues ---    0.04608   0.04896   0.04896   0.05523   0.05720
     Eigenvalues ---    0.05720   0.06335   0.07160   0.07304   0.07655
     Eigenvalues ---    0.07655   0.11347   0.11701   0.11701   0.15964
     Eigenvalues ---    0.16000   0.16000   0.16000   0.16000   0.17506
     Eigenvalues ---    0.19772   0.21930   0.21948   0.21948   0.22000
     Eigenvalues ---    0.23050   0.28519   0.28519   0.28519   0.33783
     Eigenvalues ---    0.35740   0.37230   0.37230   0.37230   0.37230
     Eigenvalues ---    0.37230   0.37230   0.37230   0.37230   0.37230
     Eigenvalues ---    0.37230   0.41291   0.47688   0.54348   0.80209
     Eigenvalues ---    0.80209   3.164811000.000001000.000001000.00000
     Eigenvalues --- 1000.000001000.000001000.000001000.000001000.00000
     Eigenvalues --- 1000.000001000.000001000.000001000.000001000.00000
     Eigenvalues --- 1000.000001000.000001000.000001000.000001000.00000
     Eigenvalues --- 1000.000001000.000001000.000001000.000001000.00000
     Eigenvalues --- 1000.000001000.000001000.000001000.000001000.00000
     Eigenvalues --- 1000.000001000.000001000.000001000.000001000.00000
     Eigenvalues --- 1000.000001000.000001000.000001000.000001000.00000
     Eigenvalues --- 1000.000001000.000001000.000001000.000001000.00000
     Eigenvalues --- 1000.000001000.000001000.000001000.000001000.00000
     Eigenvalues --- 1000.000001000.000001000.00000
 RFO step:  Lambda=-6.87045672D-01 EMin= 2.36824098D-03
 Linear search not attempted -- first point.
 Maximum step size (   0.300) exceeded in Quadratic search.
    -- Step size scaled by   0.551
 Iteration  1 RMS(Cart)=  0.04927762 RMS(Int)=  0.00171595
 Iteration  2 RMS(Cart)=  0.00090898 RMS(Int)=  0.00026159
 Iteration  3 RMS(Cart)=  0.00000568 RMS(Int)=  0.00026119
 Iteration  4 RMS(Cart)=  0.00000002 RMS(Int)=  0.00026119
 Variable       Old X    -DE/DX   Delta X   Delta X   Delta X     New X
                                 (Linear)    (Quad)   (Total)
    R1        2.02201   0.01490   0.00000   0.00774   0.00774   2.02975
    R2        2.02201   0.01493   0.00000   0.00776   0.00776   2.02977
    R3        2.02201   0.01488   0.00000   0.00774   0.00774   2.02974
    R4        2.91018  -0.00141   0.00000  -0.00080  -0.00080   2.90938
    R5        2.02201   0.01617   0.00000   0.00841   0.00841   2.03041
    R6        2.02201   0.01609   0.00000   0.00836   0.00836   2.03037
    R7        2.91018  -0.00163   0.00000  -0.00092  -0.00092   2.90926
    R8        2.02201   0.01709   0.00000   0.00888   0.00888   2.03089
    R9        2.02201   0.01643   0.00000   0.00854   0.00854   2.03055
   R10        2.91018  -0.00472   0.00000  -0.00267  -0.00267   2.90750
   R11        2.02201   0.01580   0.00000   0.00821   0.00821   2.03022
   R12        2.02201   0.01557   0.00000   0.00809   0.00809   2.03010
   R13        2.77790   0.06469   0.00000   0.03410   0.03410   2.81200
   R14        1.88973   0.36757   0.00000   0.11368   0.11338   2.00311
   R15        1.88973   0.19455   0.00000   0.05672   0.05559   1.94532
   R16        1.88973   0.12258   0.00000   0.05799   0.05799   1.94772
   R17        1.80055   1.13574   0.00000   0.16053   0.16093   1.96147
   R18        1.74071   0.29625   0.00000   0.09343   0.09343   1.83414
   R19        2.10404   0.35937   0.00000   0.11903   0.11994   2.22398
   R20        2.02201   0.01344   0.00000   0.00699   0.00699   2.02899
   R21        2.37803   0.10576   0.00000   0.03911   0.03911   2.41714
   R22        2.37803  -0.05504   0.00000  -0.02035  -0.02035   2.35768
    A1        1.91063  -0.00313   0.00000  -0.00205  -0.00206   1.90858
    A2        1.91063  -0.00364   0.00000  -0.00236  -0.00236   1.90827
    A3        1.91063   0.00283   0.00000   0.00184   0.00183   1.91247
    A4        1.91063  -0.00367   0.00000  -0.00238  -0.00238   1.90825
    A5        1.91063   0.00284   0.00000   0.00184   0.00184   1.91247
    A6        1.91063   0.00477   0.00000   0.00311   0.00311   1.91374
    A7        1.91063  -0.00146   0.00000  -0.00085  -0.00085   1.90978
    A8        1.91063  -0.00119   0.00000  -0.00067  -0.00067   1.90997
    A9        1.91063   0.00583   0.00000   0.00364   0.00364   1.91427
   A10        1.91063  -0.00079   0.00000  -0.00079  -0.00079   1.90985
   A11        1.91063  -0.00101   0.00000  -0.00054  -0.00054   1.91009
   A12        1.91063  -0.00138   0.00000  -0.00079  -0.00080   1.90984
   A13        1.91063  -0.00060   0.00000  -0.00031  -0.00031   1.91033
   A14        1.91063  -0.00003   0.00000   0.00010   0.00010   1.91074
   A15        1.91063   0.00377   0.00000   0.00237   0.00237   1.91300
   A16        1.91063  -0.00083   0.00000  -0.00074  -0.00074   1.90989
   A17        1.91063  -0.00113   0.00000  -0.00070  -0.00070   1.90993
   A18        1.91063  -0.00119   0.00000  -0.00072  -0.00072   1.90991
   A19        1.91063   0.00194   0.00000   0.00156   0.00157   1.91220
   A20        1.91063   0.00340   0.00000   0.00255   0.00255   1.91318
   A21        1.91063   0.00309   0.00000   0.00189   0.00189   1.91252
   A22        1.91063   0.00090   0.00000   0.00053   0.00052   1.91115
   A23        1.91063  -0.00367   0.00000  -0.00257  -0.00257   1.90806
   A24        1.91063  -0.00567   0.00000  -0.00396  -0.00397   1.90667
   A25        1.91063   0.11643   0.00000  -0.00921  -0.00975   1.90088
   A26        1.91063   0.24762   0.00000   0.00037   0.00077   1.91141
   A27        1.91063  -0.06580   0.00000  -0.04676  -0.04698   1.86365
   A28        2.81919  -0.16857   0.00000  -0.04215  -0.04182   2.77737
   A29        1.91063  -0.20192   0.00000   0.00695   0.00684   1.91748
   A30        1.91063  -0.02848   0.00000   0.02712   0.02699   1.93762
   A31        1.91063  -0.06786   0.00000   0.02152   0.02112   1.93175
   A32        1.52883   0.22286   0.00000   0.08604   0.08599   1.61482
   A33        2.09440  -0.03154   0.00000  -0.01997  -0.01998   2.07442
   A34        2.09440   0.00681   0.00000   0.00496   0.00495   2.09935
   A35        2.09440   0.02474   0.00000   0.01502   0.01501   2.10941
   A36        2.98395   0.08650   0.00000  -0.00603  -0.00570   2.97825
   A37        1.85669  -0.25257   0.00000  -0.02112  -0.02117   1.83552
   A38        2.17281   0.18953   0.00000   0.02117   0.02050   2.19331
   A39        2.04436   0.28470   0.00000   0.03548   0.03382   2.07818
    D1        3.14159   0.00116   0.00000   0.00085   0.00084  -3.14075
    D2       -1.04720  -0.00143   0.00000  -0.00105  -0.00105  -1.04824
    D3        1.04720  -0.00028   0.00000  -0.00020  -0.00020   1.04700
    D4        1.04720   0.00152   0.00000   0.00111   0.00111   1.04831
    D5        3.14159  -0.00107   0.00000  -0.00078  -0.00078   3.14081
    D6       -1.04720   0.00008   0.00000   0.00006   0.00006  -1.04713
    D7       -1.04720   0.00135   0.00000   0.00099   0.00099  -1.04621
    D8        1.04720  -0.00123   0.00000  -0.00090  -0.00090   1.04630
    D9        3.14159  -0.00008   0.00000  -0.00006  -0.00006   3.14154
   D10        1.04720  -0.00072   0.00000  -0.00053  -0.00053   1.04667
   D11       -1.04720   0.00067   0.00000   0.00050   0.00050  -1.04669
   D12        3.14159  -0.00016   0.00000  -0.00013  -0.00013   3.14147
   D13       -1.04720  -0.00189   0.00000  -0.00139  -0.00139  -1.04858
   D14        3.14159  -0.00049   0.00000  -0.00035  -0.00035   3.14124
   D15        1.04720  -0.00133   0.00000  -0.00098  -0.00098   1.04622
   D16        3.14159   0.00055   0.00000   0.00039   0.00039  -3.14120
   D17        1.04720   0.00194   0.00000   0.00143   0.00143   1.04862
   D18       -1.04720   0.00111   0.00000   0.00080   0.00080  -1.04640
   D19        1.04720   0.00223   0.00000   0.00163   0.00163   1.04883
   D20       -1.04720  -0.00215   0.00000  -0.00154  -0.00154  -1.04874
   D21        3.14159   0.00082   0.00000   0.00059   0.00059  -3.14100
   D22        3.14159   0.00311   0.00000   0.00227   0.00227  -3.13932
   D23        1.04720  -0.00126   0.00000  -0.00090  -0.00090   1.04630
   D24       -1.04720   0.00171   0.00000   0.00124   0.00124  -1.04596
   D25       -1.04720   0.00068   0.00000   0.00049   0.00049  -1.04670
   D26       -3.14159  -0.00370   0.00000  -0.00268  -0.00268   3.13892
   D27        1.04720  -0.00073   0.00000  -0.00054  -0.00054   1.04666
   D28        3.14159   0.00145   0.00000  -0.00256  -0.00245   3.13914
   D29       -1.04720  -0.02291   0.00000   0.00054   0.00042  -1.04678
   D30        1.04720   0.00532   0.00000  -0.00151  -0.00163   1.04557
   D31       -2.50236   0.01606   0.00000   0.00335   0.00348  -2.49887
   D32       -1.04720   0.00348   0.00000  -0.00107  -0.00096  -1.04816
   D33        1.04720  -0.02088   0.00000   0.00203   0.00192   1.04911
   D34        3.14159   0.00735   0.00000  -0.00001  -0.00014   3.14146
   D35       -0.40796   0.01809   0.00000   0.00485   0.00498  -0.40298
   D36        1.04720  -0.00113   0.00000  -0.00441  -0.00430   1.04290
   D37        3.14159  -0.02550   0.00000  -0.00131  -0.00143   3.14017
   D38       -1.04720   0.00274   0.00000  -0.00336  -0.00348  -1.05068
   D39        1.68643   0.01348   0.00000   0.00150   0.00164   1.68807
   D40        2.51152  -0.02718   0.00000  -0.00475  -0.00462   2.50690
   D41       -1.01380  -0.02276   0.00000  -0.00543  -0.00605  -1.01985
   D42        2.76926   0.01181   0.00000   0.00231   0.00198   2.77124
   D43       -0.24842   0.11798   0.00000   0.02330   0.02346  -0.22495
   D44       -2.64722  -0.12712   0.00000  -0.02358  -0.02341  -2.67063
   D45       -0.37233   0.00517   0.00000  -0.00274  -0.00308  -0.37541
   D46        2.89318   0.11134   0.00000   0.01824   0.01841   2.91158
   D47        0.49437  -0.13375   0.00000  -0.02864  -0.02847   0.46590
         Item               Value     Threshold  Converged?
 Maximum Force            1.135740     0.000450     NO 
 RMS     Force            0.141864     0.000300     NO 
 Maximum Displacement     0.196258     0.001800     NO 
 RMS     Displacement     0.049421     0.001200     NO 
 Predicted change in Energy=-3.047380D-01
 GradGradGradGradGradGradGradGradGradGradGradGradGradGradGradGradGradGrad

                          Input orientation:                          
 ---------------------------------------------------------------------
 Center     Atomic      Atomic             Coordinates (Angstroms)
 Number     Number       Type             X           Y           Z
 ---------------------------------------------------------------------
      1          6           0        0.931813   -0.344626    1.908323
      2          1           0        1.194046   -1.359181    2.144117
      3          1           0        1.360201   -0.077391    0.960284
      4          1           0       -0.137286   -0.257363    1.852737
      5          6           0        1.471800    0.595186    3.001696
      6          1           0        1.207428    1.609081    2.763863
      7          1           0        1.041302    0.326390    3.948698
      8          6           0        3.004158    0.470598    3.082018
      9          1           0        3.435270    0.739751    2.135086
     10          1           0        3.269206   -0.543112    3.320198
     11          6           0        3.541994    1.410532    4.174951
     12          1           0        3.114021    1.141815    5.123027
     13          1           0        3.280931    2.425400    3.938369
     14          7           0        5.023194    1.290238    4.251504
     15          1           0        5.382434    1.943294    5.005202
     16          1           0        5.278034    0.319259    4.479443
     17          1           0        5.391487    1.555585    3.326157
     18          6           0        7.182823    1.058130    5.036080
     19          1           0        7.675593    1.817109    5.613969
     20          8           0        5.972730    1.250163    4.668816
     21          8           0        7.783599    0.006741    4.735696
 ---------------------------------------------------------------------
                    Distance matrix (angstroms):
                    1          2          3          4          5
     1  C    0.000000
     2  H    1.074098   0.000000
     3  H    1.074108   1.752727   0.000000
     4  H    1.074094   1.752526   1.752521   0.000000
     5  C    1.539577   2.152241   2.152250   2.153162   0.000000
     6  H    2.150554   3.032300   2.473949   2.474271   1.074449
     7  H    2.150670   2.474064   3.032384   2.474447   1.074426
     8  C    2.517293   2.739390   2.739460   3.451048   1.539512
     9  H    2.737625   3.070616   2.520673   3.719827   2.151076
    10  H    2.737918   2.520997   3.070894   3.720118   2.151240
    11  C    3.877012   4.160343   4.160315   4.659576   2.515356
    12  H    4.160031   4.337648   4.678758   4.819076   2.737835
    13  H    4.160827   4.679475   4.338451   4.819885   2.738612
    14  N    4.990258   5.111054   5.110778   5.897432   3.828513
    15  H    5.885003   6.052664   6.051684   6.726680   4.596138
    16  H    5.093235   4.994985   5.281215   6.046302   4.092345
    17  H    5.050717   5.245150   4.951286   6.002090   4.048653
    18  C    7.129216   7.076178   7.197531   8.090006   6.080199
    19  H    7.992714   8.008692   8.070321   8.915793   6.841353
    20  O    5.964437   6.001550   6.065561   6.894580   4.844239
    21  O    7.420544   7.211397   7.451232   8.433364   6.572049
                    6          7          8          9         10
     6  H    0.000000
     7  H    1.754061   0.000000
     8  C    2.150722   2.150520   0.000000
     9  H    2.472727   3.031689   1.074700   0.000000
    10  H    3.031893   2.472772   1.074518   1.754368   0.000000
    11  C    2.735104   2.734961   1.538585   2.149974   2.149823
    12  H    3.069054   2.517961   2.151354   3.031938   2.472500
    13  H    2.518980   3.069509   2.152020   2.473270   3.032216
    14  N    4.107896   4.108059   2.473057   2.702547   2.702772
    15  H    4.750366   4.751421   3.394652   3.671175   3.672490
    16  H    4.601814   4.269852   2.673240   3.011412   2.474454
    17  H    4.222013   4.563177   2.633655   2.431259   2.984735
    18  C    6.416531   6.279819   4.650246   4.749872   4.563401
    19  H    7.071318   7.000656   5.481438   5.589603   5.499843
    20  O    5.144490   5.068619   3.455151   3.622017   3.513353
    21  O    7.049940   6.795595   5.078668   5.119418   4.762953
                   11         12         13         14         15
    11  C    0.000000
    12  H    1.074346   0.000000
    13  H    1.074282   1.754669   0.000000
    14  N    1.488047   2.103930   2.102885   0.000000
    15  H    2.088150   2.408723   2.405591   1.059998   0.000000
    16  H    2.073024   2.402863   2.952458   1.029418   1.710208
    17  H    2.040127   2.930325   2.363436   1.030688   1.723251
    18  C    3.757841   4.070591   4.277751   2.309423   2.006457
    19  H    4.395761   4.637347   4.742436   3.028056   2.375942
    20  O    2.485578   2.896595   3.026634   1.037967   0.970585
    21  O    4.502919   4.821139   5.172973   3.082474   3.096525
                   16         17         18         19         20
    16  H    0.000000
    17  H    1.694534   0.000000
    18  C    2.117545   2.525903   0.000000
    19  H    3.046144   3.243396   1.073698   0.000000
    20  O    1.176880   1.494610   1.279096   2.028419   0.000000
    21  O    2.537950   3.179295   1.247630   2.015058   2.197685
                   21
    21  O    0.000000
 Stoichiometry    C5H13NO2
 Framework group  C1[X(C5H13NO2)]
 Deg. of freedom    57
 Full point group                 C1      NOp   1
 Largest Abelian subgroup         C1      NOp   1
 Largest concise Abelian subgroup C1      NOp   1
                         Standard orientation:                         
 ---------------------------------------------------------------------
 Center     Atomic      Atomic             Coordinates (Angstroms)
 Number     Number       Type             X           Y           Z
 ---------------------------------------------------------------------
      1          6           0       -3.934641    0.818318    0.057660
      2          1           0       -3.709272    1.642426   -0.593295
      3          1           0       -3.875992    1.145203    1.079136
      4          1           0       -4.928403    0.465453   -0.146303
      5          6           0       -2.923036   -0.317821   -0.179282
      6          1           0       -3.151218   -1.141054    0.472377
      7          1           0       -2.984181   -0.643517   -1.201326
      8          6           0       -1.498360    0.187240    0.112794
      9          1           0       -1.436587    0.512779    1.135139
     10          1           0       -1.269406    1.010353   -0.538861
     11          6           0       -0.488885   -0.949413   -0.124322
     12          1           0       -0.547294   -1.274946   -1.146494
     13          1           0       -0.713449   -1.773095    0.527753
     14          7           0        0.887825   -0.460834    0.158948
     15          1           0        1.573773   -1.252112   -0.005221
     16          1           0        1.107938    0.327948   -0.464810
     17          1           0        0.899779   -0.159773    1.144613
     18          6           0        3.146507   -0.006180    0.000583
     19          1           0        3.898855   -0.769022    0.070382
     20          8           0        1.915024   -0.346112    0.063681
     21          8           0        3.473872    1.188904   -0.144972
 ---------------------------------------------------------------------
 Rotational constants (GHZ):      7.0534225      0.6283617      0.5897266
 Standard basis: 6-311+G(d) (5D, 7F)
 There are   215 symmetry adapted basis functions of A   symmetry.
 Integral buffers will be    131072 words long.
 Raffenetti 2 integral format.
 Two-electron integral symmetry is turned on.
   215 basis functions,   353 primitive gaussians,   223 cartesian basis functions
    33 alpha electrons       33 beta electrons
       nuclear repulsion energy       410.8672807650 Hartrees.
 NAtoms=   21 NActive=   21 NUniq=   21 SFac= 7.50D-01 NAtFMM=   80 NAOKFM=F Big=F
 One-electron integrals computed using PRISM.
 NBasis=   215 RedAO= T  NBF=   215
 NBsUse=   215 1.00D-06 NBFU=   215
 Initial guess read from the read-write file.
 B after Tr=     0.000000    0.000000    0.000000
         Rot=    1.000000    0.000000    0.000000    0.000000 Ang=   0.00 deg.
 Initial guess orbital symmetries:
       Occupied  (A) (A) (A) (A) (A) (A) (A) (A) (A) (A) (A) (A)
                 (A) (A) (A) (A) (A) (A) (A) (A) (A) (A) (A) (A)
                 (A) (A) (A) (A) (A) (A) (A) (A) (A)
       Virtual   (A) (A) (A) (A) (A) (A) (A) (A) (A) (A) (A) (A)
                 (A) (A) (A) (A) (A) (A) (A) (A) (A) (A) (A) (A)
                 (A) (A) (A) (A) (A) (A) (A) (A) (A) (A) (A) (A)
                 (A) (A) (A) (A) (A) (A) (A) (A) (A) (A) (A) (A)
                 (A) (A) (A) (A) (A) (A) (A) (A) (A) (A) (A) (A)
                 (A) (A) (A) (A) (A) (A) (A) (A) (A) (A) (A) (A)
                 (A) (A) (A) (A) (A) (A) (A) (A) (A) (A) (A) (A)
                 (A) (A) (A) (A) (A) (A) (A) (A) (A) (A) (A) (A)
                 (A) (A) (A) (A) (A) (A) (A) (A) (A) (A) (A) (A)
                 (A) (A) (A) (A) (A) (A) (A) (A) (A) (A) (A) (A)
                 (A) (A) (A) (A) (A) (A) (A) (A) (A) (A) (A) (A)
                 (A) (A) (A) (A) (A) (A) (A) (A) (A) (A) (A) (A)
                 (A) (A) (A) (A) (A) (A) (A) (A) (A) (A) (A) (A)
                 (A) (A) (A) (A) (A) (A) (A) (A) (A) (A) (A) (A)
                 (A) (A) (A) (A) (A) (A) (A) (A) (A) (A) (A) (A)
                 (A) (A)
 Harris functional with IExCor= 1009 diagonalized for initial guess.
 ExpMin= 4.38D-02 ExpMax= 8.59D+03 ExpMxC= 1.30D+03 IAcc=2 IRadAn=         0 AccDes= 0.00D+00
 HarFok:  IExCor= 1009 AccDes= 0.00D+00 IRadAn=         0 IDoV= 1
 ScaDFX=  1.000000  1.000000  1.000000  1.000000
 FoFCou: FMM=F IPFlag=           0 FMFlag=      100000 FMFlg1=           0
         NFxFlg=           0 DoJE=T BraDBF=F KetDBF=T FulRan=T
         Omega=  0.000000  0.000000  1.000000  0.000000  0.000000 ICntrl=     500 IOpCl=  0
         NMat0=    1 NMatS0=    1 NMatT0=    0 NMatD0=    1 NMtDS0=    0 NMtDT0=    0
         I1Cent=           4 NGrid=           0.
 Petite list used in FoFCou.
 Requested convergence on RMS density matrix=1.00D-08 within 128 cycles.
 Requested convergence on MAX density matrix=1.00D-06.
 Requested convergence on             energy=1.00D-06.
 No special actions if energy rises.
 SCF Done:  E(RM062X) =  -402.520118846     A.U. after   15 cycles
             Convg  =    0.8162D-08             -V/T =  1.9945
 Calling FoFJK, ICntrl=      2127 FMM=F ISym2X=0 I1Cent= 0 IOpClX= 0 NMat=1 NMatS=1 NMatT=0.
 ***** Axes restored to original set *****
 -------------------------------------------------------------------
 Center     Atomic                   Forces (Hartrees/Bohr)
 Number     Number              X              Y              Z
 -------------------------------------------------------------------
      1        6           0.004196493    0.015136612    0.016926283
      2        1           0.001698738   -0.012182068    0.000211165
      3        1           0.003341522    0.000800657   -0.011854202
      4        1          -0.011878420   -0.001550231   -0.003388319
      5        6           0.015935648   -0.016725146   -0.016966977
      6        1          -0.005169683    0.012393093   -0.000118345
      7        1          -0.006342781   -0.000305752    0.011636538
      8        6          -0.011764581    0.016354830    0.018904519
      9        1           0.006860278    0.001121919   -0.012377556
     10        1           0.005448012   -0.012364666    0.000786799
     11        6          -0.059771232   -0.023116750   -0.018142588
     12        1           0.000687691   -0.000917436    0.013241230
     13        1           0.004946364    0.014301667    0.001673474
     14        7          -0.788364577   -0.005056116   -0.487638485
     15        1          -0.079619191    0.246855029    0.166649401
     16        1          -0.110744682   -0.212158502   -0.029670633
     17        1          -0.048046468    0.021900389   -0.083080438
     18        6           0.122258415   -0.100631276   -0.031328853
     19        1          -0.011651238    0.015892146    0.006789578
     20        8           0.991923274   -0.005216175    0.434203650
     21        8          -0.023943580    0.045467776    0.023543759
 -------------------------------------------------------------------
 Cartesian Forces:  Max     0.991923274 RMS     0.188247940

 GradGradGradGradGradGradGradGradGradGradGradGradGradGradGradGradGradGrad
 Berny optimization.
 Using GEDIIS/GDIIS optimizer.
 Internal  Forces:  Max     0.689456072 RMS     0.088001150
 Search for a local minimum.
 Step number   2 out of a maximum of  118
 All quantities printed in internal units (Hartrees-Bohrs-Radians)
 Mixed Optimization -- RFO/linear search
 Update second derivatives using D2CorX and points    1    2
 DE= -3.06D-01 DEPred=-3.05D-01 R= 1.00D+00
 SS=  1.41D+00  RLast= 3.00D-01 DXNew= 5.0454D-01 8.9989D-01
 Trust test= 1.00D+00 RLast= 3.00D-01 DXMaxT set to 5.05D-01
 Use linear search instead of GDIIS.
 Linear search step of   0.600 exceeds DXMaxT=   0.505 but not scaled.
 Quartic linear search produced a step of  2.00000.
 Iteration  1 RMS(Cart)=  0.08161916 RMS(Int)=  0.01156608
 Iteration  2 RMS(Cart)=  0.01776469 RMS(Int)=  0.00145195
 Iteration  3 RMS(Cart)=  0.00013253 RMS(Int)=  0.00141525
 Iteration  4 RMS(Cart)=  0.00000114 RMS(Int)=  0.00141525
 Iteration  5 RMS(Cart)=  0.00000000 RMS(Int)=  0.00141525
 Variable       Old X    -DE/DX   Delta X   Delta X   Delta X     New X
                                 (Linear)    (Quad)   (Total)
    R1        2.02975   0.01197   0.01549   0.00000   0.01549   2.04524
    R2        2.02977   0.01200   0.01553   0.00000   0.01553   2.04529
    R3        2.02974   0.01187   0.01547   0.00000   0.01547   2.04522
    R4        2.90938  -0.00177  -0.00160   0.00000  -0.00160   2.90778
    R5        2.03041   0.01299   0.01681   0.00000   0.01681   2.04723
    R6        2.03037   0.01288   0.01673   0.00000   0.01673   2.04710
    R7        2.90926  -0.00178  -0.00185   0.00000  -0.00185   2.90741
    R8        2.03089   0.01394   0.01776   0.00000   0.01776   2.04865
    R9        2.03055   0.01318   0.01708   0.00000   0.01708   2.04762
   R10        2.90750  -0.00512  -0.00535   0.00000  -0.00535   2.90216
   R11        2.03022   0.01165   0.01642   0.00000   0.01642   2.04664
   R12        2.03010   0.01194   0.01618   0.00000   0.01618   2.04628
   R13        2.81200   0.05098   0.06821   0.00000   0.06821   2.88021
   R14        2.00311   0.25159   0.22676   0.00000   0.22475   2.22785
   R15        1.94532   0.13060   0.11118   0.00000   0.10561   2.05092
   R16        1.94772   0.06306   0.11598   0.00000   0.11598   2.06370
   R17        1.96147   0.68946   0.32185   0.00000   0.32361   2.28509
   R18        1.83414   0.21942   0.18686   0.00000   0.18736   2.02150
   R19        2.22398   0.26020   0.23988   0.00000   0.24428   2.46827
   R20        2.02899   0.00954   0.01398   0.00000   0.01398   2.04297
   R21        2.41714   0.08760   0.07822   0.00000   0.07822   2.49536
   R22        2.35768  -0.05552  -0.04070   0.00000  -0.04070   2.31697
    A1        1.90858  -0.00295  -0.00411   0.00000  -0.00412   1.90446
    A2        1.90827  -0.00332  -0.00472   0.00000  -0.00474   1.90353
    A3        1.91247   0.00264   0.00367   0.00000   0.00365   1.91612
    A4        1.90825  -0.00337  -0.00476   0.00000  -0.00478   1.90347
    A5        1.91247   0.00272   0.00367   0.00000   0.00366   1.91613
    A6        1.91374   0.00424   0.00622   0.00000   0.00620   1.91995
    A7        1.90978  -0.00121  -0.00170   0.00000  -0.00171   1.90808
    A8        1.90997  -0.00092  -0.00134   0.00000  -0.00134   1.90863
    A9        1.91427   0.00500   0.00727   0.00000   0.00727   1.92154
   A10        1.90985  -0.00097  -0.00157   0.00000  -0.00158   1.90826
   A11        1.91009  -0.00072  -0.00108   0.00000  -0.00108   1.90901
   A12        1.90984  -0.00119  -0.00159   0.00000  -0.00159   1.90824
   A13        1.91033  -0.00047  -0.00061   0.00000  -0.00061   1.90971
   A14        1.91074   0.00024   0.00021   0.00000   0.00021   1.91095
   A15        1.91300   0.00272   0.00473   0.00000   0.00473   1.91773
   A16        1.90989  -0.00108  -0.00149   0.00000  -0.00149   1.90840
   A17        1.90993  -0.00055  -0.00140   0.00000  -0.00140   1.90853
   A18        1.90991  -0.00087  -0.00145   0.00000  -0.00145   1.90846
   A19        1.91220   0.00258   0.00313   0.00000   0.00314   1.91534
   A20        1.91318   0.00449   0.00510   0.00000   0.00512   1.91830
   A21        1.91252   0.00125   0.00378   0.00000   0.00380   1.91632
   A22        1.91115   0.00077   0.00104   0.00000   0.00096   1.91211
   A23        1.90806  -0.00326  -0.00515   0.00000  -0.00517   1.90289
   A24        1.90667  -0.00589  -0.00793   0.00000  -0.00796   1.89871
   A25        1.90088   0.05647  -0.01951   0.00000  -0.02221   1.87867
   A26        1.91141   0.13242   0.00154   0.00000   0.00387   1.91528
   A27        1.86365  -0.03861  -0.09397   0.00000  -0.09528   1.76837
   A28        2.77737  -0.09227  -0.08365   0.00000  -0.08196   2.69541
   A29        1.91748  -0.10606   0.01368   0.00000   0.01264   1.93012
   A30        1.93762  -0.00850   0.05398   0.00000   0.05248   1.99011
   A31        1.93175  -0.02845   0.04224   0.00000   0.03981   1.97156
   A32        1.61482   0.12499   0.17198   0.00000   0.17180   1.78662
   A33        2.07442  -0.03009  -0.03995   0.00000  -0.03998   2.03444
   A34        2.09935   0.00712   0.00991   0.00000   0.00988   2.10923
   A35        2.10941   0.02294   0.03002   0.00000   0.03000   2.13941
   A36        2.97825   0.04419  -0.01139   0.00000  -0.00955   2.96871
   A37        1.83552  -0.15474  -0.04234   0.00000  -0.04201   1.79351
   A38        2.19331   0.10919   0.04099   0.00000   0.03718   2.23049
   A39        2.07818   0.15901   0.06765   0.00000   0.05860   2.13677
    D1       -3.14075   0.00114   0.00169   0.00000   0.00168  -3.13906
    D2       -1.04824  -0.00134  -0.00209   0.00000  -0.00210  -1.05034
    D3        1.04700  -0.00030  -0.00040   0.00000  -0.00041   1.04659
    D4        1.04831   0.00146   0.00222   0.00000   0.00222   1.05053
    D5        3.14081  -0.00102  -0.00156   0.00000  -0.00156   3.13925
    D6       -1.04713   0.00002   0.00013   0.00000   0.00013  -1.04700
    D7       -1.04621   0.00131   0.00198   0.00000   0.00198  -1.04423
    D8        1.04630  -0.00118  -0.00180   0.00000  -0.00180   1.04449
    D9        3.14154  -0.00013  -0.00011   0.00000  -0.00011   3.14142
   D10        1.04667  -0.00078  -0.00106   0.00000  -0.00106   1.04561
   D11       -1.04669   0.00069   0.00101   0.00000   0.00101  -1.04568
   D12        3.14147  -0.00007  -0.00025   0.00000  -0.00025   3.14122
   D13       -1.04858  -0.00192  -0.00277   0.00000  -0.00277  -1.05136
   D14        3.14124  -0.00045  -0.00070   0.00000  -0.00070   3.14054
   D15        1.04622  -0.00121  -0.00196   0.00000  -0.00197   1.04425
   D16       -3.14120   0.00044   0.00079   0.00000   0.00078  -3.14042
   D17        1.04862   0.00191   0.00285   0.00000   0.00286   1.05148
   D18       -1.04640   0.00115   0.00159   0.00000   0.00159  -1.04481
   D19        1.04883   0.00257   0.00326   0.00000   0.00326   1.05209
   D20       -1.04874  -0.00276  -0.00308   0.00000  -0.00309  -1.05182
   D21       -3.14100   0.00094   0.00119   0.00000   0.00119  -3.13981
   D22       -3.13932   0.00333   0.00455   0.00000   0.00455  -3.13477
   D23        1.04630  -0.00200  -0.00179   0.00000  -0.00180   1.04450
   D24       -1.04596   0.00169   0.00248   0.00000   0.00247  -1.04349
   D25       -1.04670   0.00114   0.00099   0.00000   0.00099  -1.04571
   D26        3.13892  -0.00419  -0.00535   0.00000  -0.00535   3.13356
   D27        1.04666  -0.00050  -0.00108   0.00000  -0.00108   1.04557
   D28        3.13914   0.00091  -0.00491   0.00000  -0.00411   3.13503
   D29       -1.04678  -0.01434   0.00084   0.00000   0.00009  -1.04669
   D30        1.04557   0.00219  -0.00326   0.00000  -0.00418   1.04139
   D31       -2.49887   0.01152   0.00697   0.00000   0.00783  -2.49104
   D32       -1.04816   0.00284  -0.00192   0.00000  -0.00113  -1.04929
   D33        1.04911  -0.01241   0.00383   0.00000   0.00306   1.05217
   D34        3.14146   0.00412  -0.00027   0.00000  -0.00120   3.14025
   D35       -0.40298   0.01346   0.00996   0.00000   0.01081  -0.39218
   D36        1.04290  -0.00174  -0.00860   0.00000  -0.00778   1.03511
   D37        3.14017  -0.01698  -0.00285   0.00000  -0.00359   3.13658
   D38       -1.05068  -0.00046  -0.00696   0.00000  -0.00785  -1.05853
   D39        1.68807   0.00888   0.00327   0.00000   0.00416   1.69223
   D40        2.50690  -0.01748  -0.00923   0.00000  -0.00838   2.49852
   D41       -1.01985  -0.01555  -0.01211   0.00000  -0.01564  -1.03549
   D42        2.77124   0.00754   0.00397   0.00000   0.00212   2.77336
   D43       -0.22495   0.07073   0.04693   0.00000   0.04769  -0.17726
   D44       -2.67063  -0.07354  -0.04683   0.00000  -0.04574  -2.71638
   D45       -0.37541   0.00040  -0.00615   0.00000  -0.00800  -0.38341
   D46        2.91158   0.06358   0.03681   0.00000   0.03757   2.94915
   D47        0.46590  -0.08068  -0.05695   0.00000  -0.05586   0.41004
         Item               Value     Threshold  Converged?
 Maximum Force            0.689456     0.000450     NO 
 RMS     Force            0.088001     0.000300     NO 
 Maximum Displacement     0.369662     0.001800     NO 
 RMS     Displacement     0.098331     0.001200     NO 
 Predicted change in Energy=-2.152327D-01
 GradGradGradGradGradGradGradGradGradGradGradGradGradGradGradGradGradGrad

                          Input orientation:                          
 ---------------------------------------------------------------------
 Center     Atomic      Atomic             Coordinates (Angstroms)
 Number     Number       Type             X           Y           Z
 ---------------------------------------------------------------------
      1          6           0        0.861942   -0.344127    1.906120
      2          1           0        1.132007   -1.369609    2.122486
      3          1           0        1.267092   -0.066840    0.941554
      4          1           0       -0.216722   -0.262049    1.873231
      5          6           0        1.427551    0.584305    2.995062
      6          1           0        1.150872    1.607846    2.772682
      7          1           0        1.015959    0.302327    3.956610
      8          6           0        2.960991    0.469083    3.043799
      9          1           0        3.374440    0.752145    2.082441
     10          1           0        3.239732   -0.553898    3.267192
     11          6           0        3.520124    1.397873    4.131579
     12          1           0        3.116250    1.116140    5.096193
     13          1           0        3.253543    2.424336    3.912804
     14          7           0        5.039352    1.284174    4.176555
     15          1           0        5.427628    2.015268    5.015970
     16          1           0        5.323855    0.260968    4.400133
     17          1           0        5.307232    1.589020    3.162696
     18          6           0        7.342832    1.052495    5.172594
     19          1           0        7.766270    1.837510    5.783506
     20          8           0        6.114614    1.247321    4.728512
     21          8           0        7.979216    0.033310    4.928516
 ---------------------------------------------------------------------
                    Distance matrix (angstroms):
                    1          2          3          4          5
     1  C    0.000000
     2  H    1.082295   0.000000
     3  H    1.082323   1.763536   0.000000
     4  H    1.082281   1.762919   1.762905   0.000000
     5  C    1.538732   2.160212   2.160239   2.162974   0.000000
     6  H    2.155136   3.047679   2.484172   2.485122   1.083346
     7  H    2.155488   2.484521   3.047936   2.485657   1.083279
     8  C    2.522228   2.752233   2.752442   3.464483   1.538535
     9  H    2.746917   3.087386   2.532444   3.737486   2.156716
    10  H    2.747801   2.533425   3.088224   3.738366   2.157212
    11  C    3.879841   4.171152   4.171066   4.671134   2.516431
    12  H    4.170234   4.354205   4.698920   4.836899   2.747600
    13  H    4.172640   4.701082   4.356635   4.839345   2.749948
    14  N    5.025634   5.150642   5.149798   5.943267   3.864046
    15  H    6.006946   6.187245   6.184343   6.849939   4.704502
    16  H    5.147320   5.041631   5.341025   6.112018   4.154510
    17  H    5.007658   5.221879   4.898782   5.966845   4.011168
    18  C    7.390693   7.331036   7.487938   8.352285   6.320711
    19  H    8.213611   8.228130   8.325284   9.133814   7.037421
    20  O    6.171643   6.202102   6.290194   7.107506   5.041131
    21  O    7.741636   7.531684   7.807592   8.751880   6.853185
                    6          7          8          9         10
     6  H    0.000000
     7  H    1.767559   0.000000
     8  C    2.155648   2.155036   0.000000
     9  H    2.480506   3.045862   1.084100   0.000000
    10  H    3.046476   2.480642   1.083555   1.768482   0.000000
    11  C    2.739351   2.738919   1.535756   2.153405   2.152950
    12  H    3.082724   2.524314   2.157571   3.046613   2.479823
    13  H    2.527402   3.084092   2.159577   2.482149   3.047439
    14  N    4.146794   4.147299   2.503417   2.727691   2.728385
    15  H    4.846543   4.849663   3.516311   3.796927   3.800754
    16  H    4.677228   4.330864   2.732412   3.068088   2.508212
    17  H    4.174661   4.549823   2.602545   2.367064   2.979525
    18  C    6.663959   6.486192   4.906390   5.038590   4.800675
    19  H    7.271952   7.159681   5.698183   5.845004   5.704403
    20  O    5.347334   5.242626   3.659133   3.841282   3.693886
    21  O    7.331648   7.035902   5.378163   5.460845   5.056433
                   11         12         13         14         15
    11  C    0.000000
    12  H    1.083037   0.000000
    13  H    1.082846   1.769361   0.000000
    14  N    1.524140   2.138291   2.135099   0.000000
    15  H    2.191323   2.481398   2.472035   1.178929   0.000000
    16  H    2.148981   2.467658   3.033784   1.085302   1.862148
    17  H    2.041819   2.960139   2.340524   1.092063   1.905467
    18  C    3.976945   4.227751   4.493473   2.520275   2.149295
    19  H    4.577324   4.755571   4.920223   3.213184   2.467783
    20  O    2.666528   3.023671   3.199448   1.209216   1.069730
    21  O    4.730818   4.984884   5.392649   3.282210   3.232090
                   16         17         18         19         20
    16  H    0.000000
    17  H    1.815281   0.000000
    18  C    2.302060   2.910535   0.000000
    19  H    3.219410   3.602396   1.081093   0.000000
    20  O    1.306150   1.794548   1.320487   2.046778   0.000000
    21  O    2.716976   3.560597   1.226090   2.007858   2.233957
                   21
    21  O    0.000000
 Stoichiometry    C5H13NO2
 Framework group  C1[X(C5H13NO2)]
 Deg. of freedom    57
 Full point group                 C1      NOp   1
 Largest Abelian subgroup         C1      NOp   1
 Largest concise Abelian subgroup C1      NOp   1
                         Standard orientation:                         
 ---------------------------------------------------------------------
 Center     Atomic      Atomic             Coordinates (Angstroms)
 Number     Number       Type             X           Y           Z
 ---------------------------------------------------------------------
      1          6           0       -4.040525    0.803639    0.049060
      2          1           0       -3.810296    1.671847   -0.554739
[...]
    11  C    3.898339   4.215447   4.220549   4.708617   2.538263
    12  H    4.198027   4.418974   4.757022   4.877301   2.776177
    13  H    4.200103   4.754551   4.419451   4.884171   2.780816
    14  N    5.063311   5.223573   5.235125   5.985010   3.872949
    15  H    6.460233   6.683606   6.742966   7.261572   5.086436
    16  H    5.177158   5.121842   5.404181   6.146751   4.143409
    17  H    5.208909   5.426709   5.166403   6.178425   4.167360
    18  C    7.595144   8.023322   7.837174   8.260657   6.130413
    19  H    7.052891   7.563811   7.166563   7.738466   5.647239
    20  O    7.238126   7.497693   7.573726   7.968131   5.801893
    21  O    8.594210   9.065104   8.866536   9.184557   7.101470
                    6          7          8          9         10
     6  H    0.000000
     7  H    1.752136   0.000000
     8  C    2.154278   2.152838   0.000000
     9  H    2.509473   3.060235   1.097212   0.000000
    10  H    3.060813   2.505756   1.097167   1.757102   0.000000
    11  C    2.762654   2.760945   1.524396   2.153173   2.151417
    12  H    3.089949   2.547750   2.162748   3.064319   2.514266
    13  H    2.554486   3.098775   2.160489   2.508096   3.061581
    14  N    4.148887   4.141578   2.527236   2.776142   2.766974
    15  H    5.182640   5.111299   4.004736   4.386878   4.302491
    16  H    4.648376   4.327209   2.729337   3.060205   2.547297
    17  H    4.351288   4.662719   2.755495   2.585924   3.084932
    18  C    5.903171   6.150153   5.321071   5.614650   5.873958
    19  H    5.324748   5.848881   4.821712   4.938405   5.500660
    20  O    5.812560   5.718440   4.861311   5.296116   5.192181
    21  O    6.789275   7.047587   6.417857   6.737834   6.997863
                   11         12         13         14         15
    11  C    0.000000
    12  H    1.093923   0.000000
    13  H    1.094304   1.750439   0.000000
    14  N    1.472704   2.079442   2.082548   0.000000
    15  H    2.569291   2.611723   2.743020   1.744744   0.000000
    16  H    2.055846   2.408976   2.935499   1.016446   2.276075
    17  H    2.059506   2.934895   2.396564   1.015885   2.378724
    18  C    3.827282   3.848672   3.440766   3.386740   1.910496
    19  H    3.440043   3.752307   2.867671   3.060640   2.106334
    20  O    3.366791   3.212546   3.374713   2.732361   0.996488
    21  O    4.919888   4.830956   4.448352   4.572967   3.028977
                   16         17         18         19         20
    16  H    0.000000
    17  H    1.624284   0.000000
    18  C    4.127677   3.736634   0.000000
    19  H    3.960550   3.163095   1.107613   0.000000
    20  O    3.223714   3.334197   1.324170   2.035641   0.000000
    21  O    5.286994   4.922720   1.194379   2.014501   2.230292
                   21
    21  O    0.000000
 Stoichiometry    C5H13NO2
 Framework group  C1[X(C5H13NO2)]
 Deg. of freedom    57
 Full point group                 C1      NOp   1
 Largest Abelian subgroup         C1      NOp   1
 Largest concise Abelian subgroup C1      NOp   1
                         Standard orientation:                         
 ---------------------------------------------------------------------
 Center     Atomic      Atomic             Coordinates (Angstroms)
 Number     Number       Type             X           Y           Z
 ---------------------------------------------------------------------
      1          6           0       -4.350373   -0.514303    0.031609
      2          1           0       -4.704514    0.316385   -0.584268
      3          1           0       -4.553669   -0.262293    1.075646
      4          1           0       -4.946973   -1.392846   -0.220446
      5          6           0       -2.862335   -0.765913   -0.192353
      6          1           0       -2.536091   -1.616746    0.415525
      7          1           0       -2.688604   -1.050664   -1.235617
      8          6           0       -2.008714    0.454438    0.145371
      9          1           0       -2.176777    0.742840    1.190577
     10          1           0       -2.329105    1.306897   -0.466542
     11          6           0       -0.521037    0.207707   -0.077614
     12          1           0       -0.335713   -0.080755   -1.116418
     13          1           0       -0.182566   -0.631207    0.538147
     14          7           0        0.350815    1.356620    0.220261
     15          1           0        1.948839    0.881526   -0.294266
     16          1           0        0.066920    2.161156   -0.332269
     17          1           0        0.251073    1.633089    1.192701
     18          6           0        3.240371   -0.409227    0.267782
     19          1           0        2.609035   -0.475200    1.175455
     20          8           0        2.791654    0.462845   -0.621920
     21          8           0        4.225218   -1.070936    0.130817
 ---------------------------------------------------------------------
 Rotational constants (GHZ):      5.1643545      0.4892357      0.4617958

 **********************************************************************

            Population analysis using the SCF density.

 **********************************************************************

 Orbital symmetries:
       Occupied  (A) (A) (A) (A) (A) (A) (A) (A) (A) (A) (A) (A)
                 (A) (A) (A) (A) (A) (A) (A) (A) (A) (A) (A) (A)
                 (A) (A) (A) (A) (A) (A) (A) (A) (A)
       Virtual   (A) (A) (A) (A) (A) (A) (A) (A) (A) (A) (A) (A)
                 (A) (A) (A) (A) (A) (A) (A) (A) (A) (A) (A) (A)
                 (A) (A) (A) (A) (A) (A) (A) (A) (A) (A) (A) (A)
                 (A) (A) (A) (A) (A) (A) (A) (A) (A) (A) (A) (A)
                 (A) (A) (A) (A) (A) (A) (A) (A) (A) (A) (A) (A)
                 (A) (A) (A) (A) (A) (A) (A) (A) (A) (A) (A) (A)
                 (A) (A) (A) (A) (A) (A) (A) (A) (A) (A) (A) (A)
                 (A) (A) (A) (A) (A) (A) (A) (A) (A) (A) (A) (A)
                 (A) (A) (A) (A) (A) (A) (A) (A) (A) (A) (A) (A)
                 (A) (A) (A) (A) (A) (A) (A) (A) (A) (A) (A) (A)
                 (A) (A) (A) (A) (A) (A) (A) (A) (A) (A) (A) (A)
                 (A) (A) (A) (A) (A) (A) (A) (A) (A) (A) (A) (A)
                 (A) (A) (A) (A) (A) (A) (A) (A) (A) (A) (A) (A)
                 (A) (A) (A) (A) (A) (A) (A) (A) (A) (A) (A) (A)
                 (A) (A) (A) (A) (A) (A) (A) (A) (A) (A) (A) (A)
                 (A) (A)
 The electronic state is 1-A.
 Alpha  occ. eigenvalues --  -19.64094 -19.59786 -14.77701 -10.65775 -10.58969
 Alpha  occ. eigenvalues --  -10.55506 -10.55069 -10.53801  -1.21330  -1.13012
 Alpha  occ. eigenvalues --   -1.03580  -0.91231  -0.82737  -0.73687  -0.70008
 Alpha  occ. eigenvalues --   -0.68882  -0.64554  -0.61926  -0.55607  -0.54427
 Alpha  occ. eigenvalues --   -0.52583  -0.52276  -0.50913  -0.49175  -0.47327
 Alpha  occ. eigenvalues --   -0.45875  -0.43550  -0.43490  -0.41675  -0.40814
 Alpha  occ. eigenvalues --   -0.37454  -0.35728  -0.33862
 Alpha virt. eigenvalues --   -0.00631   0.01246   0.01666   0.02154   0.03782
 Alpha virt. eigenvalues --    0.04505   0.04906   0.05445   0.05558   0.06152
 Alpha virt. eigenvalues --    0.07365   0.07599   0.08012   0.09630   0.09905
 Alpha virt. eigenvalues --    0.10277   0.11354   0.12793   0.13977   0.15003
 Alpha virt. eigenvalues --    0.15814   0.16158   0.17279   0.17383   0.18612
 Alpha virt. eigenvalues --    0.19559   0.19797   0.20221   0.21650   0.21732
 Alpha virt. eigenvalues --    0.21872   0.23336   0.24229   0.24591   0.24776
 Alpha virt. eigenvalues --    0.26982   0.27516   0.27877   0.28837   0.29012
 Alpha virt. eigenvalues --    0.29708   0.30163   0.30556   0.32183   0.33236
 Alpha virt. eigenvalues --    0.33845   0.35020   0.36813   0.38154   0.39525
 Alpha virt. eigenvalues --    0.41284   0.42511   0.42904   0.44128   0.47426
 Alpha virt. eigenvalues --    0.47882   0.49606   0.52496   0.53383   0.56263
 Alpha virt. eigenvalues --    0.57355   0.59054   0.59753   0.62840   0.63875
 Alpha virt. eigenvalues --    0.65321   0.66505   0.67045   0.68696   0.69543
 Alpha virt. eigenvalues --    0.70315   0.71702   0.71859   0.72903   0.74461
 Alpha virt. eigenvalues --    0.76080   0.77276   0.77967   0.78781   0.80582
 Alpha virt. eigenvalues --    0.83057   0.85924   0.89125   0.95096   0.98614
 Alpha virt. eigenvalues --    1.02926   1.04324   1.04630   1.10105   1.14852
 Alpha virt. eigenvalues --    1.16771   1.19969   1.21084   1.21682   1.22389
 Alpha virt. eigenvalues --    1.26193   1.30878   1.35422   1.37843   1.40797
 Alpha virt. eigenvalues --    1.43868   1.51310   1.53704   1.54788   1.56469
 Alpha virt. eigenvalues --    1.57927   1.61002   1.61919   1.62931   1.64368
 Alpha virt. eigenvalues --    1.68487   1.71448   1.72911   1.82389   1.83923
 Alpha virt. eigenvalues --    1.84348   1.86808   1.88052   1.94019   1.97502
 Alpha virt. eigenvalues --    2.05329   2.07162   2.13017   2.17765   2.18541
 Alpha virt. eigenvalues --    2.36634   2.40675   2.44635   2.52214   2.53571
 Alpha virt. eigenvalues --    2.54035   2.57344   2.58617   2.58984   2.62324
 Alpha virt. eigenvalues --    2.62715   2.66256   2.68016   2.72861   2.80860
 Alpha virt. eigenvalues --    2.85076   2.88638   2.94199   2.95927   2.99494
 Alpha virt. eigenvalues --    3.03947   3.09589   3.11760   3.13211   3.15349
 Alpha virt. eigenvalues --    3.18612   3.26328   3.26459   3.28317   3.30710
 Alpha virt. eigenvalues --    3.31226   3.34754   3.37786   3.45472   3.65816
 Alpha virt. eigenvalues --    3.67535   3.82161   3.88744   4.05006   4.07405
 Alpha virt. eigenvalues --    4.11352   4.13387   4.60592   5.11243   5.16358
 Alpha virt. eigenvalues --    5.21016   5.26792   5.56842   5.94693  23.51773
 Alpha virt. eigenvalues --   23.67898  23.75487  23.80221  23.87873  35.49365
 Alpha virt. eigenvalues --   49.97376  50.07944
          Condensed to atoms (all electrons):
              1          2          3          4          5          6
     1  C    6.308103   0.370546   0.364133   0.382423  -0.423826  -0.043632
     2  H    0.370546   0.464282  -0.038384  -0.025032   0.008988   0.006751
     3  H    0.364133  -0.038384   0.464439  -0.025011   0.021150  -0.008966
     4  H    0.382423  -0.025032  -0.025011   0.437847  -0.085149  -0.003763
     5  C   -0.423826   0.008988   0.021150  -0.085149   6.396793   0.423439
     6  H   -0.043632   0.006751  -0.008966  -0.003763   0.423439   0.468818
     7  H   -0.049322  -0.008640   0.006635  -0.003845   0.438687  -0.042427
     8  C    0.640244  -0.040291  -0.051269   0.051302  -1.373232  -0.035562
     9  H   -0.004378  -0.000378   0.003542  -0.000227  -0.043492  -0.008558
    10  H   -0.003053   0.003401  -0.000276  -0.000212  -0.042533   0.006512
    11  C   -0.550427   0.003577   0.008978   0.003864   1.021771  -0.021298
    12  H    0.004632   0.000046  -0.000038  -0.000025  -0.030257  -0.000394
    13  H    0.001343  -0.000042   0.000062  -0.000020  -0.018631   0.002746
    14  N    0.004128  -0.000287  -0.000297   0.000267  -0.043384   0.000146
    15  H    0.000572   0.000000   0.000000   0.000000  -0.000085  -0.000002
    16  H   -0.000227  -0.000011   0.000013  -0.000003   0.006490  -0.000035
    17  H    0.000767   0.000011  -0.000010  -0.000003   0.003849   0.000053
    18  C   -0.001405  -0.000004   0.000004   0.000002   0.008446  -0.000189
    19  H    0.000227   0.000000   0.000000   0.000000   0.001068  -0.000007
    20  O   -0.000086   0.000000   0.000000   0.000000  -0.002171   0.000017
    21  O   -0.000030   0.000000   0.000000   0.000000  -0.000157   0.000001
              7          8          9         10         11         12
     1  C   -0.049322   0.640244  -0.004378  -0.003053  -0.550427   0.004632
     2  H   -0.008640  -0.040291  -0.000378   0.003401   0.003577   0.000046
     3  H    0.006635  -0.051269   0.003542  -0.000276   0.008978  -0.000038
     4  H   -0.003845   0.051302  -0.000227  -0.000212   0.003864  -0.000025
     5  C    0.438687  -1.373232  -0.043492  -0.042533   1.021771  -0.030257
     6  H   -0.042427  -0.035562  -0.008558   0.006512  -0.021298  -0.000394
     7  H    0.465617  -0.065210   0.006690  -0.008225  -0.000478   0.003366
     8  C   -0.065210  10.684162   0.364960   0.386908  -3.768445  -0.024120
     9  H    0.006690   0.364960   0.475387  -0.045368   0.010953   0.006228
    10  H   -0.008225   0.386908  -0.045368   0.473085  -0.015893  -0.009299
    11  C   -0.000478  -3.768445   0.010953  -0.015893   8.832997   0.418618
    12  H    0.003366  -0.024120   0.006228  -0.009299   0.418618   0.430795
    13  H   -0.000350  -0.065048  -0.009595   0.006584   0.432168  -0.036526
    14  N   -0.000220  -0.002378  -0.005516  -0.002325  -0.029901  -0.040656
    15  H    0.000018   0.034632  -0.000054  -0.000307  -0.037663  -0.000008
    16  H    0.000050  -0.058562  -0.001577   0.005585   0.034665  -0.009976
    17  H   -0.000017  -0.044920   0.005498  -0.001742   0.031823   0.006519
    18  C    0.000026  -0.097582   0.000526   0.000266   0.053965   0.001537
    19  H    0.000002   0.011779   0.000001  -0.000010   0.001851   0.000173
    20  O   -0.000009   0.037329   0.000048   0.000161  -0.021040   0.000927
    21  O    0.000000   0.000194  -0.000002   0.000000  -0.003321  -0.000134
             13         14         15         16         17         18
     1  C    0.001343   0.004128   0.000572  -0.000227   0.000767  -0.001405
     2  H   -0.000042  -0.000287   0.000000  -0.000011   0.000011  -0.000004
     3  H    0.000062  -0.000297   0.000000   0.000013  -0.000010   0.000004
     4  H   -0.000020   0.000267   0.000000  -0.000003  -0.000003   0.000002
     5  C   -0.018631  -0.043384  -0.000085   0.006490   0.003849   0.008446
     6  H    0.002746   0.000146  -0.000002  -0.000035   0.000053  -0.000189
     7  H   -0.000350  -0.000220   0.000018   0.000050  -0.000017   0.000026
     8  C   -0.065048  -0.002378   0.034632  -0.058562  -0.044920  -0.097582
     9  H   -0.009595  -0.005516  -0.000054  -0.001577   0.005498   0.000526
    10  H    0.006584  -0.002325  -0.000307   0.005585  -0.001742   0.000266
    11  C    0.432168  -0.029901  -0.037663   0.034665   0.031823   0.053965
    12  H   -0.036526  -0.040656  -0.000008  -0.009976   0.006519   0.001537
    13  H    0.449853  -0.026394  -0.002145   0.005800  -0.011345   0.005845
    14  N   -0.026394   7.472299  -0.102109   0.330018   0.303039  -0.016592
    15  H   -0.002145  -0.102109   0.369221  -0.006469   0.003800   0.023046
    16  H    0.005800   0.330018  -0.006469   0.362107  -0.044042   0.001945
    17  H   -0.011345   0.303039   0.003800  -0.044042   0.376912   0.000830
    18  C    0.005845  -0.016592   0.023046   0.001945   0.000830   5.033018
    19  H    0.000334  -0.003632   0.024379  -0.000127  -0.000649   0.433695
    20  O    0.000136   0.045721   0.150579   0.000958  -0.000652   0.126312
    21  O   -0.000326   0.008567   0.001335  -0.000059  -0.000352   0.415156
             19         20         21
     1  C    0.000227  -0.000086  -0.000030
     2  H    0.000000   0.000000   0.000000
     3  H    0.000000   0.000000   0.000000
     4  H    0.000000   0.000000   0.000000
     5  C    0.001068  -0.002171  -0.000157
     6  H   -0.000007   0.000017   0.000001
     7  H    0.000002  -0.000009   0.000000
     8  C    0.011779   0.037329   0.000194
     9  H    0.000001   0.000048  -0.000002
    10  H   -0.000010   0.000161   0.000000
    11  C    0.001851  -0.021040  -0.003321
    12  H    0.000173   0.000927  -0.000134
    13  H    0.000334   0.000136  -0.000326
    14  N   -0.003632   0.045721   0.008567
    15  H    0.024379   0.150579   0.001335
    16  H   -0.000127   0.000958  -0.000059
    17  H   -0.000649  -0.000652  -0.000352
    18  C    0.433695   0.126312   0.415156
    19  H    0.609276  -0.173467  -0.080693
    20  O   -0.173467   8.267193  -0.090181
    21  O   -0.080693  -0.090181   8.058441
 Mulliken atomic charges:
              1
     1  C   -1.000731
     2  H    0.255467
     3  H    0.255295
     4  H    0.267586
     5  C   -0.267764
     6  H    0.256352
     7  H    0.257652
     8  C   -0.584888
     9  H    0.245312
    10  H    0.246742
    11  C   -0.406765
    12  H    0.278593
    13  H    0.265550
    14  N   -0.890494
    15  H    0.541258
    16  H    0.373458
    17  H    0.370631
    18  C    0.011154
    19  H    0.175800
    20  O   -0.341773
    21  O   -0.308438
 Sum of Mulliken atomic charges =   0.00000
 Mulliken charges with hydrogens summed into heavy atoms:
              1
     1  C   -0.222382
     5  C    0.246239
     8  C   -0.092833
    11  C    0.137379
    14  N   -0.146405
    18  C    0.186954
    20  O    0.199485
    21  O   -0.308438
 Sum of Mulliken charges with hydrogens summed into heavy atoms =   0.00000
 Electronic spatial extent (au):  <R**2>=           2354.2188
 Charge=              0.0000 electrons
 Dipole moment (field-independent basis, Debye):
    X=             -6.9719    Y=              2.5037    Z=              1.7666  Tot=              7.6155
 Quadrupole moment (field-independent basis, Debye-Ang):
   XX=            -80.2540   YY=            -50.2129   ZZ=            -50.4352
   XY=              6.3141   XZ=              4.9826   YZ=              0.8037
 Traceless Quadrupole moment (field-independent basis, Debye-Ang):
   XX=            -19.9533   YY=             10.0878   ZZ=              9.8655
   XY=              6.3141   XZ=              4.9826   YZ=              0.8037
 Octapole moment (field-independent basis, Debye-Ang**2):
  XXX=           -111.0412  YYY=             14.0063  ZZZ=              3.0057  XYY=             -3.9261
  XXY=             27.4627  XXZ=             10.7433  XZZ=              4.0956  YZZ=              3.1184
  YYZ=             -0.8778  XYZ=              3.4943
 Hexadecapole moment (field-independent basis, Debye-Ang**3):
 XXXX=          -3298.0663 YYYY=           -251.4278 ZZZZ=           -109.1319 XXXY=            147.1794
 XXXZ=             35.9709 YYYX=              7.6797 YYYZ=             -2.4219 ZZZX=              1.2694
 ZZZY=              3.9198 XXYY=           -539.1071 XXZZ=           -476.5071 YYZZ=            -59.1192
 XXYZ=             11.1572 YYXZ=              0.5475 ZZXY=             -4.1747
 N-N= 3.661597730407D+02 E-N=-1.674613124383D+03  KE= 4.020873101135D+02
 1\1\GINC-N0293\FOpt\RM062X\6-311+G(d)\C5H13N1O2\WAB665\08-Mar-2017\0\\
 # opt M062X/6-311+G* geom=connectivity\\Title Card Required\\0,1\C,0.4
 421506376,0.2628883565,2.2295829915\H,0.5978860058,-0.6230631996,1.608
 6164968\H,0.431023517,1.132908645,1.5679245916\H,-0.5459486414,0.17956
 82162,2.6856710373\C,1.5362757468,0.3903562868,3.2852187842\H,1.346020
 8153,1.2697959114,3.9099252788\H,1.5046577726,-0.4745210807,3.95652466
 95\C,2.9293085454,0.4988656326,2.6690468753\H,2.9677004265,1.365494620
 8,1.9972169851\H,3.125264328,-0.3838050545,2.0475415537\C,4.025857927,
 0.6257482378,3.7203624938\H,4.0019002121,-0.2317940601,4.3991229666\H,
 3.8525227323,1.5112405502,4.3395220561\N,5.393720586,0.7211319104,3.18
 30438728\H,6.4502651927,0.6611395995,4.5702162885\H,5.5944667001,-0.08
 51837496,2.5976223235\H,5.4810512771,1.5350548191,2.5814419867\C,6.817
 9448125,1.7982355077,6.060793082\H,6.271986344,2.5581480744,5.46811300
 03\O,6.9132334491,0.6262123622,5.4519353223\O,7.2674913031,2.039176574
 ,7.1407916736\\Version=EM64L-G09RevA.02\State=1-A\HF=-403.4912033\RMSD
 =2.772e-09\RMSF=1.613e-05\Dipole=-1.72271,-0.1236562,-2.4482867\Quadru
 pole=-3.4986392,7.0646066,-3.5659674,-0.7702039,-12.5865974,-2.1745704
 \PG=C01 [X(C5H13N1O2)]\\@


 Fatherhood is pretending the present you love most is soap-on-a-rope.
 -- Bill Cosby
 Job cpu time:  0 days  5 hours 42 minutes 60.0 seconds.
 File lengths (MBytes):  RWF=    166 Int=      0 D2E=      0 Chk=      6 Scr=      4
 Normal termination of Gaussian 09 at Wed Mar  8 18:02:02 2017.
