 Entering Gaussian System, Link 0=g09
 Input=Ethane_M062X_STO-3G.com
 Output=Ethane_M062X_STO-3G.log
 Initial command:
 /sw/contrib/gaussian/g09/E01/g09/l1.exe "/scr/Gau-27776.inp" -scrdir="/scr/"
 Entering Link 1 = /sw/contrib/gaussian/g09/E01/g09/l1.exe PID=     27777.
  
 Copyright (c) 1988,1990,1992,1993,1995,1998,2003,2009,2015,
            Gaussian, Inc.  All Rights Reserved.
  
 This is part of the Gaussian(R) 09 program.  It is based on
 the Gaussian(R) 03 system (copyright 2003, Gaussian, Inc.),
 the Gaussian(R) 98 system (copyright 1998, Gaussian, Inc.),
 the Gaussian(R) 94 system (copyright 1995, Gaussian, Inc.),
 the Gaussian 92(TM) system (copyright 1992, Gaussian, Inc.),
 the Gaussian 90(TM) system (copyright 1990, Gaussian, Inc.),
 the Gaussian 88(TM) system (copyright 1988, Gaussian, Inc.),
 the Gaussian 86(TM) system (copyright 1986, Carnegie Mellon
 University), and the Gaussian 82(TM) system (copyright 1983,
 Carnegie Mellon University). Gaussian is a federally registered
 trademark of Gaussian, Inc.
  
 This software contains proprietary and confidential information,
 including trade secrets, belonging to Gaussian, Inc.
  
 This software is provided under written license and may be
 used, copied, transmitted, or stored only in accord with that
 written license.
  
 The following legend is applicable only to US Government
 contracts under FAR:
  
                    RESTRICTED RIGHTS LEGEND
  
 Use, reproduction and disclosure by the US Government is
 subject to restrictions as set forth in subparagraphs (a)
 and (c) of the Commercial Computer Software - Restricted
 Rights clause in FAR 52.227-19.
  
 Gaussian, Inc.
 340 Quinnipiac St., Bldg. 40, Wallingford CT 06492
  
  
 ---------------------------------------------------------------
 Warning -- This program may not be used in any manner that
 competes with the business of Gaussian, Inc. or will provide
 assistance to any competitor of Gaussian, Inc.  The licensee
 of this program is prohibited from giving any competitor of
 Gaussian, Inc. access to this program.  By using this program,
 the user acknowledges that Gaussian, Inc. is engaged in the
 business of creating and licensing software in the field of
 computational chemistry and represents and warrants to the
 licensee that it is not a competitor of Gaussian, Inc. and that
 it will not use this program in any manner prohibited above.
 ---------------------------------------------------------------
  

 Cite this work as:
 Gaussian 09, Revision E.01,
 M. J. Frisch, G. W. Trucks, H. B. Schlegel, G. E. Scuseria, 
 M. A. Robb, J. R. Cheeseman, G. Scalmani, V. Barone, B. Mennucci, 
 G. A. Petersson, H. Nakatsuji, M. Caricato, X. Li, H. P. Hratchian, 
 A. F. Izmaylov, J. Bloino, G. Zheng, J. L. Sonnenberg, M. Hada, 
 M. Ehara, K. Toyota, R. Fukuda, J. Hasegawa, M. Ishida, T. Nakajima, 
 Y. Honda, O. Kitao, H. Nakai, T. Vreven, J. A. Montgomery, Jr., 
 J. E. Peralta, F. Ogliaro, M. Bearpark, J. J. Heyd, E. Brothers, 
 K. N. Kudin, V. N. Staroverov, T. Keith, R. Kobayashi, J. Normand, 
 K. Raghavachari, A. Rendell, J. C. Burant, S. S. Iyengar, J. Tomasi, 
 M. Cossi, N. Rega, J. M. Millam, M. Klene, J. E. Knox, J. B. Cross, 
 V. Bakken, C. Adamo, J. Jaramillo, R. Gomperts, R. E. Stratmann, 
 O. Yazyev, A. J. Austin, R. Cammi, C. Pomelli, J. W. Ochterski, 
 R. L. Martin, K. Morokuma, V. G. Zakrzewski, G. A. Voth, 
 P. Salvador, J. J. Dannenberg, S. Dapprich, A. D. Daniels, 
 O. Farkas, J. B. Foresman, J. V. Ortiz, J. Cioslowski, 
 and D. J. Fox, Gaussian, Inc., Wallingford CT, 2013.
 
 ******************************************
 Gaussian 09:  ES64L-G09RevE.01 30-Nov-2015
                21-Feb-2017 
 ******************************************
 %NProcShared=8
 Will use up to    8 processors via shared memory.
 -------------------
 #n M062X/STO-3G Opt
 -------------------
 1/14=-1,18=20,19=15,26=3,38=1/1,3;
 2/9=110,12=2,17=6,18=5,40=1/2;
 3/6=3,11=2,16=1,25=1,30=1,71=1,74=-55/1,2,3;
 4//1;
 5/5=2,38=5/2;
 6/7=2,8=2,9=2,10=2,28=1/1;
 7//1,2,3,16;
 1/14=-1,18=20,19=15,26=3/3(2);
 2/9=110/2;
 99//99;
 2/9=110/2;
 3/6=3,11=2,16=1,25=1,30=1,71=1,74=-55/1,2,3;
 4/5=5,16=3,69=1/1;
 5/5=2,38=5/2;
 7//1,2,3,16;
 1/14=-1,18=20,19=15,26=3/3(-5);
 2/9=110/2;
 6/7=2,8=2,9=2,10=2,19=2,28=1/1;
 99/9=1/99;
 -------------------
 Ethane M062X STO-3G
 -------------------
 Symbolic Z-matrix:
 Charge =  0 Multiplicity = 1
 C                    -6.3877    0.65101   0. 
 C                    -4.85301   0.57162   0. 
 H                    -6.75069   1.00542   0.96733 
 H                    -6.81994  -0.3333   -0.19339 
 H                    -6.73338   1.33993  -0.77394 
 H                    -4.50733  -0.1173    0.77394 
 H                    -4.42077   1.55593   0.19339 
 H                    -4.49002   0.21721  -0.96733 
 

 GradGradGradGradGradGradGradGradGradGradGradGradGradGradGradGradGradGrad
 Berny optimization.
 Initialization pass.
                           ----------------------------
                           !    Initial Parameters    !
                           ! (Angstroms and Degrees)  !
 --------------------------                            --------------------------
 ! Name  Definition              Value          Derivative Info.                !
 --------------------------------------------------------------------------------
 ! R1    R(1,2)                  1.5367         estimate D2E/DX2                !
 ! R2    R(1,3)                  1.0923         estimate D2E/DX2                !
 ! R3    R(1,4)                  1.0923         estimate D2E/DX2                !
 ! R4    R(1,5)                  1.0923         estimate D2E/DX2                !
 ! R5    R(2,6)                  1.0923         estimate D2E/DX2                !
 ! R6    R(2,7)                  1.0923         estimate D2E/DX2                !
 ! R7    R(2,8)                  1.0923         estimate D2E/DX2                !
 ! A1    A(2,1,3)              110.4041         estimate D2E/DX2                !
 ! A2    A(2,1,4)              110.4039         estimate D2E/DX2                !
 ! A3    A(2,1,5)              110.4038         estimate D2E/DX2                !
 ! A4    A(3,1,4)              108.5227         estimate D2E/DX2                !
 ! A5    A(3,1,5)              108.5224         estimate D2E/DX2                !
 ! A6    A(4,1,5)              108.5227         estimate D2E/DX2                !
 ! A7    A(1,2,6)              110.4038         estimate D2E/DX2                !
 ! A8    A(1,2,7)              110.4039         estimate D2E/DX2                !
 ! A9    A(1,2,8)              110.4041         estimate D2E/DX2                !
 ! A10   A(6,2,7)              108.5227         estimate D2E/DX2                !
 ! A11   A(6,2,8)              108.5224         estimate D2E/DX2                !
 ! A12   A(7,2,8)              108.5227         estimate D2E/DX2                !
 ! D1    D(3,1,2,6)             60.0002         estimate D2E/DX2                !
 ! D2    D(3,1,2,7)            -59.9998         estimate D2E/DX2                !
 ! D3    D(3,1,2,8)            180.0            estimate D2E/DX2                !
 ! D4    D(4,1,2,6)            -60.0            estimate D2E/DX2                !
 ! D5    D(4,1,2,7)            180.0            estimate D2E/DX2                !
 ! D6    D(4,1,2,8)             59.9998         estimate D2E/DX2                !
 ! D7    D(5,1,2,6)            180.0            estimate D2E/DX2                !
 ! D8    D(5,1,2,7)             60.0            estimate D2E/DX2                !
 ! D9    D(5,1,2,8)            -60.0002         estimate D2E/DX2                !
 --------------------------------------------------------------------------------
 Trust Radius=3.00D-01 FncErr=1.00D-07 GrdErr=1.00D-06
 Number of steps in this run=     38 maximum allowed number of steps=    100.
 GradGradGradGradGradGradGradGradGradGradGradGradGradGradGradGradGradGrad

                          Input orientation:                          
 ---------------------------------------------------------------------
 Center     Atomic      Atomic             Coordinates (Angstroms)
 Number     Number       Type             X           Y           Z
 ---------------------------------------------------------------------
      1          6           0       -6.387700    0.651010    0.000000
      2          6           0       -4.853010    0.571620    0.000000
      3          1           0       -6.750690    1.005420    0.967330
      4          1           0       -6.819940   -0.333300   -0.193390
      5          1           0       -6.733380    1.339930   -0.773940
      6          1           0       -4.507330   -0.117300    0.773940
      7          1           0       -4.420770    1.555930    0.193390
      8          1           0       -4.490020    0.217210   -0.967330
 ---------------------------------------------------------------------
                    Distance matrix (angstroms):
                    1          2          3          4          5
     1  C    0.000000
     2  C    1.536742   0.000000
     3  H    1.092289   2.173729   0.000000
     4  H    1.092290   2.173728   1.773200   0.000000
     5  H    1.092286   2.173724   1.773194   1.773198   0.000000
     6  H    2.173724   1.092286   2.516061   2.516058   3.078108
     7  H    2.173728   1.092290   2.516063   3.078117   2.516058
     8  H    2.173729   1.092289   3.078118   2.516063   2.516061
                    6          7          8
     6  H    0.000000
     7  H    1.773198   0.000000
     8  H    1.773194   1.773200   0.000000
 This structure is nearly, but not quite of a higher symmetry.
 Consider Symm=Loose if the higher symmetry is desired.
 Stoichiometry    C2H6
 Framework group  CI[X(C2H6)]
 Deg. of freedom     9
 Full point group                 CI      NOp   2
 Largest Abelian subgroup         CI      NOp   2
 Largest concise Abelian subgroup CI      NOp   2
                         Standard orientation:                         
 ---------------------------------------------------------------------
 Center     Atomic      Atomic             Coordinates (Angstroms)
 Number     Number       Type             X           Y           Z
 ---------------------------------------------------------------------
      1          6           0       -0.767345    0.039695    0.000000
      2          6           0        0.767345   -0.039695    0.000000
      3          1           0       -1.130335    0.394105    0.967330
      4          1           0       -1.199585   -0.944615   -0.193390
      5          1           0       -1.113025    0.728615   -0.773940
      6          1           0        1.113025   -0.728615    0.773940
      7          1           0        1.199585    0.944615    0.193390
      8          1           0        1.130335   -0.394105   -0.967330
 ---------------------------------------------------------------------
 Rotational constants (GHZ):     79.7421566     19.9565168     19.9564985
 Standard basis: STO-3G (5D, 7F)
 There are     8 symmetry adapted cartesian basis functions of AG  symmetry.
 There are     8 symmetry adapted cartesian basis functions of AU  symmetry.
 There are     8 symmetry adapted basis functions of AG  symmetry.
 There are     8 symmetry adapted basis functions of AU  symmetry.
    16 basis functions,    48 primitive gaussians,    16 cartesian basis functions
     9 alpha electrons        9 beta electrons
       nuclear repulsion energy        42.1695770054 Hartrees.
 NAtoms=    8 NActive=    8 NUniq=    4 SFac= 4.00D+00 NAtFMM=   60 NAOKFM=F Big=F
 Integral buffers will be    131072 words long.
 Raffenetti 2 integral format.
 Two-electron integral symmetry is turned on.
 One-electron integrals computed using PRISM.
 NBasis=    16 RedAO= T EigKep=  1.47D-01  NBF=     8     8
 NBsUse=    16 1.00D-06 EigRej= -1.00D+00 NBFU=     8     8
 ExpMin= 1.69D-01 ExpMax= 7.16D+01 ExpMxC= 7.16D+01 IAcc=1 IRadAn=         1 AccDes= 0.00D+00
 Harris functional with IExCor= 1009 and IRadAn=       1 diagonalized for initial guess.
 HarFok:  IExCor= 1009 AccDes= 0.00D+00 IRadAn=         1 IDoV= 1 UseB2=F ITyADJ=14
 ICtDFT=  3500011 ScaDFX=  1.000000  1.000000  1.000000  1.000000
 FoFCou: FMM=F IPFlag=           0 FMFlag=      100000 FMFlg1=           0
         NFxFlg=           0 DoJE=T BraDBF=F KetDBF=T FulRan=T
         wScrn=  0.000000 ICntrl=     500 IOpCl=  0 I1Cent=   200000004 NGrid=           0
         NMat0=    1 NMatS0=      1 NMatT0=    0 NMatD0=    1 NMtDS0=    0 NMtDT0=    0
 Petite list used in FoFCou.
 Initial guess orbital symmetries:
       Occupied  (AU) (AG) (AG) (AU) (AU) (AU) (AG) (AG) (AG)
       Virtual   (AU) (AU) (AU) (AG) (AG) (AG) (AU)
 The electronic state of the initial guess is 1-AG.
 Keep R1 ints in memory in symmetry-blocked form, NReq=889927.
 Requested convergence on RMS density matrix=1.00D-08 within 128 cycles.
 Requested convergence on MAX density matrix=1.00D-06.
 Requested convergence on             energy=1.00D-06.
 No special actions if energy rises.
 Integral accuracy reduced to 1.0D-05 until final iterations.
 Initial convergence to 1.0D-05 achieved.  Increase integral accuracy.
 SCF Done:  E(RM062X) =  -78.8666202106     A.U. after   11 cycles
            NFock= 11  Conv=0.14D-08     -V/T= 2.0160

 **********************************************************************

            Population analysis using the SCF density.

 **********************************************************************

 Orbital symmetries:
       Occupied  (AU) (AG) (AG) (AU) (AU) (AU) (AG) (AG) (AG)
       Virtual   (AU) (AU) (AU) (AG) (AU) (AG) (AG)
 The electronic state is 1-AG.
 Alpha  occ. eigenvalues --  -10.37192 -10.37121  -0.80925  -0.66635  -0.47284
 Alpha  occ. eigenvalues --   -0.47282  -0.38441  -0.37342  -0.37340
 Alpha virt. eigenvalues --    0.48672   0.48678   0.49247   0.55416   0.59658
 Alpha virt. eigenvalues --    0.59913   0.59920
          Condensed to atoms (all electrons):
               1          2          3          4          5          6
     1  C    4.759961   0.360998   0.383495   0.383494   0.383498  -0.020178
     2  C    0.360998   4.759961  -0.020182  -0.020177  -0.020178   0.383498
     3  H    0.383495  -0.020182   0.610680  -0.020793  -0.020792  -0.002284
     4  H    0.383494  -0.020177  -0.020793   0.610638  -0.020787  -0.002284
     5  H    0.383498  -0.020178  -0.020792  -0.020787   0.610636   0.001877
     6  H   -0.020178   0.383498  -0.002284  -0.002284   0.001877   0.610636
     7  H   -0.020177   0.383494  -0.002284   0.001877  -0.002284  -0.020787
     8  H   -0.020182   0.383495   0.001877  -0.002284  -0.002284  -0.020792
               7          8
     1  C   -0.020177  -0.020182
     2  C    0.383494   0.383495
     3  H   -0.002284   0.001877
     4  H    0.001877  -0.002284
     5  H   -0.002284  -0.002284
     6  H   -0.020787  -0.020792
     7  H    0.610638  -0.020793
     8  H   -0.020793   0.610680
 Mulliken charges:
               1
     1  C   -0.210910
     2  C   -0.210910
     3  H    0.070282
     4  H    0.070315
     5  H    0.070313
     6  H    0.070313
     7  H    0.070315
     8  H    0.070282
 Sum of Mulliken charges =   0.00000
 Mulliken charges with hydrogens summed into heavy atoms:
               1
     1  C    0.000000
     2  C    0.000000
 Electronic spatial extent (au):  <R**2>=            107.2221
 Charge=              0.0000 electrons
 Dipole moment (field-independent basis, Debye):
    X=              0.0000    Y=              0.0000    Z=              0.0000  Tot=              0.0000
 Quadrupole moment (field-independent basis, Debye-Ang):
   XX=            -14.2532   YY=            -13.8358   ZZ=            -13.8349
   XY=              0.0218   XZ=              0.0004   YZ=             -0.0001
 Traceless Quadrupole moment (field-independent basis, Debye-Ang):
   XX=             -0.2786   YY=              0.1388   ZZ=              0.1397
   XY=              0.0218   XZ=              0.0004   YZ=             -0.0001
 Octapole moment (field-independent basis, Debye-Ang**2):
  XXX=              0.0000  YYY=              0.0000  ZZZ=              0.0000  XYY=              0.0000
  XXY=              0.0000  XXZ=              0.0000  XZZ=              0.0000  YZZ=              0.0000
  YYZ=              0.0000  XYZ=              0.0000
 Hexadecapole moment (field-independent basis, Debye-Ang**3):
 XXXX=            -84.3172 YYYY=            -25.1350 ZZZZ=            -24.7722 XXXY=              1.7456
 XXXZ=              0.0062 YYYX=              2.4196 YYYZ=             -0.1080 ZZZX=             -0.6969
 ZZZY=              0.0359 XXYY=            -16.8471 XXZZ=            -17.0282 YYZZ=             -8.1681
 XXYZ=              0.0717 YYXZ=              0.6920 ZZXY=             -0.6355
 N-N= 4.216957700541D+01 E-N=-2.659559361740D+02  KE= 7.762106179474D+01
 Symmetry AG   KE= 4.038411904686D+01
 Symmetry AU   KE= 3.723694274788D+01
 Calling FoFJK, ICntrl=      2127 FMM=F ISym2X=1 I1Cent= 0 IOpClX= 0 NMat=1 NMatS=1 NMatT=0.
 ***** Axes restored to original set *****
 -------------------------------------------------------------------
 Center     Atomic                   Forces (Hartrees/Bohr)
 Number     Number              X              Y              Z
 -------------------------------------------------------------------
      1        6           0.001213746   -0.000029799   -0.000069447
      2        6          -0.001213746    0.000029799    0.000069447
      3        1          -0.001734083    0.000746113    0.001995798
      4        1          -0.001848258   -0.001968619   -0.000377431
      5        1          -0.001691944    0.001429609   -0.001555402
      6        1           0.001691944   -0.001429609    0.001555402
      7        1           0.001848258    0.001968619    0.000377431
      8        1           0.001734083   -0.000746113   -0.001995798
 -------------------------------------------------------------------
 Cartesian Forces:  Max     0.001995798 RMS     0.001407881

 GradGradGradGradGradGradGradGradGradGradGradGradGradGradGradGradGradGrad
 Berny optimization.
 FormGI is forming the generalized inverse of G from B-inverse, IUseBI=4.
 Internal  Forces:  Max     0.004064277 RMS     0.001541566
 Search for a local minimum.
 Step number   1 out of a maximum of   38
 All quantities printed in internal units (Hartrees-Bohrs-Radians)
 Mixed Optimization -- RFO/linear search
 Second derivative matrix not updated -- first step.
 ITU=  0
     Eigenvalues ---    0.00280   0.05575   0.05575   0.05575   0.05575
     Eigenvalues ---    0.16000   0.16000   0.16000   0.16000   0.16000
     Eigenvalues ---    0.16000   0.28809   0.34549   0.34549   0.34549
     Eigenvalues ---    0.34549   0.34550   0.34550
 RFO step:  Lambda=-2.37214241D-04 EMin= 2.79920382D-03
 Linear search not attempted -- first point.
 Iteration  1 RMS(Cart)=  0.00986230 RMS(Int)=  0.00001762
 Iteration  2 RMS(Cart)=  0.00001796 RMS(Int)=  0.00001072
 Iteration  3 RMS(Cart)=  0.00000000 RMS(Int)=  0.00001072
 ClnCor:  largest displacement from symmetrization is 1.21D-08 for atom     8.
 Variable       Old X    -DE/DX   Delta X   Delta X   Delta X     New X
                                 (Linear)    (Quad)   (Total)
    R1        2.90402   0.00406   0.00000   0.01410   0.01410   2.91812
    R2        2.06413   0.00259   0.00000   0.00748   0.00748   2.07161
    R3        2.06413   0.00256   0.00000   0.00742   0.00742   2.07155
    R4        2.06412   0.00255   0.00000   0.00736   0.00736   2.07148
    R5        2.06412   0.00255   0.00000   0.00736   0.00736   2.07148
    R6        2.06413   0.00256   0.00000   0.00742   0.00742   2.07155
    R7        2.06413   0.00259   0.00000   0.00748   0.00748   2.07161
    A1        1.92691   0.00092   0.00000   0.00571   0.00569   1.93261
    A2        1.92691   0.00091   0.00000   0.00566   0.00565   1.93256
    A3        1.92691   0.00093   0.00000   0.00587   0.00585   1.93276
    A4        1.89408  -0.00096   0.00000  -0.00611  -0.00613   1.88795
    A5        1.89407  -0.00095   0.00000  -0.00586  -0.00588   1.88820
    A6        1.89408  -0.00095   0.00000  -0.00585  -0.00586   1.88821
    A7        1.92691   0.00093   0.00000   0.00587   0.00585   1.93276
    A8        1.92691   0.00091   0.00000   0.00566   0.00565   1.93256
    A9        1.92691   0.00092   0.00000   0.00571   0.00569   1.93261
   A10        1.89408  -0.00095   0.00000  -0.00585  -0.00586   1.88821
   A11        1.89407  -0.00095   0.00000  -0.00586  -0.00588   1.88820
   A12        1.89408  -0.00096   0.00000  -0.00611  -0.00613   1.88795
    D1        1.04720  -0.00001   0.00000  -0.00015  -0.00015   1.04705
    D2       -1.04719  -0.00002   0.00000  -0.00029  -0.00029  -1.04749
    D3        3.14159   0.00000   0.00000   0.00000   0.00000   3.14159
    D4       -1.04720   0.00001   0.00000   0.00014   0.00014  -1.04706
    D5        3.14159   0.00000   0.00000   0.00000   0.00000   3.14159
    D6        1.04719   0.00002   0.00000   0.00029   0.00029   1.04749
    D7        3.14159   0.00000   0.00000   0.00000   0.00000   3.14159
    D8        1.04720  -0.00001   0.00000  -0.00014  -0.00014   1.04706
    D9       -1.04720   0.00001   0.00000   0.00015   0.00015  -1.04705
         Item               Value     Threshold  Converged?
 Maximum Force            0.004064     0.000450     NO 
 RMS     Force            0.001542     0.000300     NO 
 Maximum Displacement     0.020801     0.001800     NO 
 RMS     Displacement     0.009871     0.001200     NO 
 Predicted change in Energy=-1.187185D-04
 GradGradGradGradGradGradGradGradGradGradGradGradGradGradGradGradGradGrad

                          Input orientation:                          
 ---------------------------------------------------------------------
 Center     Atomic      Atomic             Coordinates (Angstroms)
 Number     Number       Type             X           Y           Z
 ---------------------------------------------------------------------
      1          6           0       -6.391422    0.651256   -0.000053
      2          6           0       -4.849288    0.571374    0.000053
      3          1           0       -6.761649    1.006422    0.968737
      4          1           0       -6.830947   -0.334157   -0.193609
      5          1           0       -6.744304    1.341489   -0.775080
      6          1           0       -4.496406   -0.118859    0.775080
      7          1           0       -4.409763    1.556787    0.193609
      8          1           0       -4.479061    0.216208   -0.968737
 ---------------------------------------------------------------------
                    Distance matrix (angstroms):
                    1          2          3          4          5
     1  C    0.000000
     2  C    1.544201   0.000000
     3  H    1.096250   2.187405   0.000000
     4  H    1.096215   2.187342   1.775670   0.000000
     5  H    1.096182   2.187463   1.775801   1.775783   0.000000
     6  H    2.187463   1.096182   2.536747   2.536690   3.096556
     7  H    2.187342   1.096215   2.536748   3.096408   2.536690
     8  H    2.187405   1.096250   3.096522   2.536748   2.536747
                    6          7          8
     6  H    0.000000
     7  H    1.775783   0.000000
     8  H    1.775801   1.775670   0.000000
 Stoichiometry    C2H6
 Framework group  CI[X(C2H6)]
 Deg. of freedom     9
 Full point group                 CI      NOp   2
 Largest Abelian subgroup         CI      NOp   2
 Largest concise Abelian subgroup CI      NOp   2
                         Standard orientation:                         
 ---------------------------------------------------------------------
 Center     Atomic      Atomic             Coordinates (Angstroms)
 Number     Number       Type             X           Y           Z
 ---------------------------------------------------------------------
      1          6           0       -0.771067    0.039941   -0.000053
      2          6           0        0.771067   -0.039941    0.000053
      3          1           0       -1.141294    0.395107    0.968737
      4          1           0       -1.210592   -0.945472   -0.193609
      5          1           0       -1.123949    0.730174   -0.775080
      6          1           0        1.123949   -0.730174    0.775080
      7          1           0        1.210592    0.945472    0.193609
      8          1           0        1.141294   -0.395107   -0.968737
 ---------------------------------------------------------------------
 Rotational constants (GHZ):     79.5129353     19.7228361     19.7223849
 Standard basis: STO-3G (5D, 7F)
 There are     8 symmetry adapted cartesian basis functions of AG  symmetry.
 There are     8 symmetry adapted cartesian basis functions of AU  symmetry.
 There are     8 symmetry adapted basis functions of AG  symmetry.
 There are     8 symmetry adapted basis functions of AU  symmetry.
    16 basis functions,    48 primitive gaussians,    16 cartesian basis functions
     9 alpha electrons        9 beta electrons
       nuclear repulsion energy        41.9765029502 Hartrees.
 NAtoms=    8 NActive=    8 NUniq=    4 SFac= 4.00D+00 NAtFMM=   60 NAOKFM=F Big=F
 Integral buffers will be    131072 words long.
 Raffenetti 2 integral format.
 Two-electron integral symmetry is turned on.
 One-electron integrals computed using PRISM.
 NBasis=    16 RedAO= T EigKep=  1.49D-01  NBF=     8     8
 NBsUse=    16 1.00D-06 EigRej= -1.00D+00 NBFU=     8     8
 Initial guess from the checkpoint file:  "/scr/Gau-27777.chk"
 B after Tr=     0.000000    0.000000    0.000000
         Rot=    1.000000    0.000001    0.000011    0.000011 Ang=   0.00 deg.
 Initial guess orbital symmetries:
       Occupied  (AU) (AG) (AG) (AU) (AU) (AU) (AG) (AG) (AG)
       Virtual   (AG) (AG) (AG) (AU) (AU) (AU) (AU)
 ExpMin= 1.69D-01 ExpMax= 7.16D+01 ExpMxC= 7.16D+01 IAcc=1 IRadAn=         1 AccDes= 0.00D+00
 Harris functional with IExCor= 1009 and IRadAn=       1 diagonalized for initial guess.
 HarFok:  IExCor= 1009 AccDes= 0.00D+00 IRadAn=         1 IDoV= 1 UseB2=F ITyADJ=14
 ICtDFT=  3500011 ScaDFX=  1.000000  1.000000  1.000000  1.000000
 FoFCou: FMM=F IPFlag=           0 FMFlag=      100000 FMFlg1=           0
         NFxFlg=           0 DoJE=T BraDBF=F KetDBF=T FulRan=T
         wScrn=  0.000000 ICntrl=     500 IOpCl=  0 I1Cent=   200000004 NGrid=           0
         NMat0=    1 NMatS0=      1 NMatT0=    0 NMatD0=    1 NMtDS0=    0 NMtDT0=    0
 Petite list used in FoFCou.
 Keep R1 ints in memory in symmetry-blocked form, NReq=889927.
 Requested convergence on RMS density matrix=1.00D-08 within 128 cycles.
 Requested convergence on MAX density matrix=1.00D-06.
 Requested convergence on             energy=1.00D-06.
 No special actions if energy rises.
 Integral accuracy reduced to 1.0D-05 until final iterations.
 Initial convergence to 1.0D-05 achieved.  Increase integral accuracy.
 SCF Done:  E(RM062X) =  -78.8667023367     A.U. after   10 cycles
            NFock= 10  Conv=0.14D-08     -V/T= 2.0164
 Calling FoFJK, ICntrl=      2127 FMM=F ISym2X=1 I1Cent= 0 IOpClX= 0 NMat=1 NMatS=1 NMatT=0.
 ***** Axes restored to original set *****
 -------------------------------------------------------------------
 Center     Atomic                   Forces (Hartrees/Bohr)
 Number     Number              X              Y              Z
 -------------------------------------------------------------------
      1        6           0.001101360   -0.000076688    0.000006183
      2        6          -0.001101360    0.000076688   -0.000006183
      3        1           0.000396612   -0.000150304   -0.000346426
      4        1           0.000423346    0.000316409    0.000070840
      5        1           0.000383883   -0.000261807    0.000279230
      6        1          -0.000383883    0.000261807   -0.000279230
      7        1          -0.000423346   -0.000316409   -0.000070840
      8        1          -0.000396612    0.000150304    0.000346426
 -------------------------------------------------------------------
 Cartesian Forces:  Max     0.001101360 RMS     0.000418036

 GradGradGradGradGradGradGradGradGradGradGradGradGradGradGradGradGradGrad
 Berny optimization.
 Using GEDIIS/GDIIS optimizer.
 FormGI is forming the generalized inverse of G from B-inverse, IUseBI=4.
 Internal  Forces:  Max     0.002311031 RMS     0.000517045
 Search for a local minimum.
 Step number   2 out of a maximum of   38
 All quantities printed in internal units (Hartrees-Bohrs-Radians)
 Mixed Optimization -- En-DIIS/RFO-DIIS
 Update second derivatives using D2CorX and points    1    2
 DE= -8.21D-05 DEPred=-1.19D-04 R= 6.92D-01
 TightC=F SS=  1.41D+00  RLast= 3.06D-02 DXNew= 5.0454D-01 9.1941D-02
 Trust test= 6.92D-01 RLast= 3.06D-02 DXMaxT set to 3.00D-01
 ITU=  1  0
 Use linear search instead of GDIIS.
     Eigenvalues ---    0.00280   0.05514   0.05514   0.05516   0.05516
     Eigenvalues ---    0.16000   0.16000   0.16000   0.16000   0.16000
     Eigenvalues ---    0.16566   0.30917   0.34549   0.34549   0.34549
     Eigenvalues ---    0.34550   0.34550   0.40520
 RFO step:  Lambda=-3.31989055D-06 EMin= 2.79920382D-03
 Quartic linear search produced a step of -0.23423.
 Iteration  1 RMS(Cart)=  0.00267324 RMS(Int)=  0.00000217
 Iteration  2 RMS(Cart)=  0.00000061 RMS(Int)=  0.00000208
 ClnCor:  largest displacement from symmetrization is 5.28D-09 for atom     7.
 Variable       Old X    -DE/DX   Delta X   Delta X   Delta X     New X
                                 (Linear)    (Quad)   (Total)
    R1        2.91812  -0.00231  -0.00330  -0.00268  -0.00598   2.91214
    R2        2.07161  -0.00049  -0.00175   0.00076  -0.00099   2.07062
    R3        2.07155  -0.00047  -0.00174   0.00078  -0.00096   2.07058
    R4        2.07148  -0.00048  -0.00172   0.00075  -0.00098   2.07051
    R5        2.07148  -0.00048  -0.00172   0.00075  -0.00098   2.07051
    R6        2.07155  -0.00047  -0.00174   0.00078  -0.00096   2.07058
    R7        2.07161  -0.00049  -0.00175   0.00076  -0.00099   2.07062
    A1        1.93261  -0.00025  -0.00133   0.00019  -0.00114   1.93147
    A2        1.93256  -0.00024  -0.00132   0.00025  -0.00107   1.93148
    A3        1.93276  -0.00025  -0.00137   0.00021  -0.00116   1.93160
    A4        1.88795   0.00026   0.00143  -0.00026   0.00118   1.88913
    A5        1.88820   0.00026   0.00138  -0.00024   0.00114   1.88933
    A6        1.88821   0.00026   0.00137  -0.00017   0.00120   1.88942
    A7        1.93276  -0.00025  -0.00137   0.00021  -0.00116   1.93160
    A8        1.93256  -0.00024  -0.00132   0.00025  -0.00107   1.93148
    A9        1.93261  -0.00025  -0.00133   0.00019  -0.00114   1.93147
   A10        1.88821   0.00026   0.00137  -0.00017   0.00120   1.88942
   A11        1.88820   0.00026   0.00138  -0.00024   0.00114   1.88933
   A12        1.88795   0.00026   0.00143  -0.00026   0.00118   1.88913
    D1        1.04705   0.00001   0.00004   0.00004   0.00008   1.04712
    D2       -1.04749   0.00000   0.00007  -0.00004   0.00003  -1.04746
    D3        3.14159   0.00000   0.00000   0.00000   0.00000   3.14159
    D4       -1.04706   0.00000  -0.00003   0.00008   0.00005  -1.04701
    D5        3.14159   0.00000   0.00000   0.00000   0.00000   3.14159
    D6        1.04749   0.00000  -0.00007   0.00004  -0.00003   1.04746
    D7        3.14159   0.00000   0.00000   0.00000   0.00000   3.14159
    D8        1.04706   0.00000   0.00003  -0.00008  -0.00005   1.04701
    D9       -1.04705  -0.00001  -0.00004  -0.00004  -0.00008  -1.04712
         Item               Value     Threshold  Converged?
 Maximum Force            0.002311     0.000450     NO 
 RMS     Force            0.000517     0.000300     NO 
 Maximum Displacement     0.005533     0.001800     NO 
 RMS     Displacement     0.002674     0.001200     NO 
 Predicted change in Energy=-9.970369D-06
 GradGradGradGradGradGradGradGradGradGradGradGradGradGradGradGradGradGrad

                          Input orientation:                          
 ---------------------------------------------------------------------
 Center     Atomic      Atomic             Coordinates (Angstroms)
 Number     Number       Type             X           Y           Z
 ---------------------------------------------------------------------
      1          6           0       -6.389843    0.651152   -0.000055
      2          6           0       -4.850867    0.571478    0.000055
      3          1           0       -6.758731    1.006255    0.968674
      4          1           0       -6.828057   -0.334283   -0.193595
      5          1           0       -6.741376    1.341313   -0.775029
      6          1           0       -4.499334   -0.118683    0.775029
      7          1           0       -4.412653    1.556913    0.193595
      8          1           0       -4.481979    0.216375   -0.968674
 ---------------------------------------------------------------------
                    Distance matrix (angstroms):
                    1          2          3          4          5
     1  C    0.000000
     2  C    1.541037   0.000000
     3  H    1.095725   2.183392   0.000000
     4  H    1.095706   2.183388   1.775589   0.000000
     5  H    1.095666   2.183444   1.775688   1.775726   0.000000
     6  H    2.183444   1.095666   2.531375   2.531337   3.092091
     7  H    2.183388   1.095706   2.531414   3.092041   2.531337
     8  H    2.183392   1.095725   3.092059   2.531414   2.531375
                    6          7          8
     6  H    0.000000
     7  H    1.775726   0.000000
     8  H    1.775688   1.775589   0.000000
 Stoichiometry    C2H6
 Framework group  CI[X(C2H6)]
 Deg. of freedom     9
 Full point group                 CI      NOp   2
 Largest Abelian subgroup         CI      NOp   2
 Largest concise Abelian subgroup CI      NOp   2
                         Standard orientation:                         
 ---------------------------------------------------------------------
 Center     Atomic      Atomic             Coordinates (Angstroms)
 Number     Number       Type             X           Y           Z
 ---------------------------------------------------------------------
      1          6           0       -0.769488    0.039837   -0.000055
      2          6           0        0.769488   -0.039837    0.000055
      3          1           0       -1.138376    0.394940    0.968674
      4          1           0       -1.207702   -0.945598   -0.193595
      5          1           0       -1.121021    0.729998   -0.775029
      6          1           0        1.121021   -0.729998    0.775029
      7          1           0        1.207702    0.945598    0.193595
      8          1           0        1.138376   -0.394940   -0.968674
 ---------------------------------------------------------------------
 Rotational constants (GHZ):     79.5204160     19.7999061     19.7994538
 Standard basis: STO-3G (5D, 7F)
 There are     8 symmetry adapted cartesian basis functions of AG  symmetry.
 There are     8 symmetry adapted cartesian basis functions of AU  symmetry.
 There are     8 symmetry adapted basis functions of AG  symmetry.
 There are     8 symmetry adapted basis functions of AU  symmetry.
    16 basis functions,    48 primitive gaussians,    16 cartesian basis functions
     9 alpha electrons        9 beta electrons
       nuclear repulsion energy        42.0294310281 Hartrees.
 NAtoms=    8 NActive=    8 NUniq=    4 SFac= 4.00D+00 NAtFMM=   60 NAOKFM=F Big=F
 Integral buffers will be    131072 words long.
 Raffenetti 2 integral format.
 Two-electron integral symmetry is turned on.
 One-electron integrals computed using PRISM.
 NBasis=    16 RedAO= T EigKep=  1.49D-01  NBF=     8     8
 NBsUse=    16 1.00D-06 EigRej= -1.00D+00 NBFU=     8     8
 Initial guess from the checkpoint file:  "/scr/Gau-27777.chk"
 B after Tr=     0.000000    0.000000    0.000000
         Rot=    1.000000    0.000000    0.000000   -0.000005 Ang=   0.00 deg.
 Initial guess orbital symmetries:
       Occupied  (AU) (AG) (AG) (AU) (AU) (AU) (AG) (AG) (AG)
       Virtual   (AG) (AG) (AG) (AU) (AU) (AU) (AU)
 Keep R1 ints in memory in symmetry-blocked form, NReq=889927.
 Requested convergence on RMS density matrix=1.00D-08 within 128 cycles.
 Requested convergence on MAX density matrix=1.00D-06.
 Requested convergence on             energy=1.00D-06.
 No special actions if energy rises.
 SCF Done:  E(RM062X) =  -78.8667121345     A.U. after    5 cycles
            NFock=  5  Conv=0.78D-08     -V/T= 2.0163
 Calling FoFJK, ICntrl=      2127 FMM=F ISym2X=1 I1Cent= 0 IOpClX= 0 NMat=1 NMatS=1 NMatT=0.
 ***** Axes restored to original set *****
 -------------------------------------------------------------------
 Center     Atomic                   Forces (Hartrees/Bohr)
 Number     Number              X              Y              Z
 -------------------------------------------------------------------
      1        6          -0.000079466   -0.000004242    0.000002735
      2        6           0.000079466    0.000004242   -0.000002735
      3        1          -0.000008413   -0.000044651   -0.000089069
      4        1           0.000011754    0.000084979    0.000019571
      5        1          -0.000016734   -0.000073583    0.000076664
      6        1           0.000016734    0.000073583   -0.000076664
      7        1          -0.000011754   -0.000084979   -0.000019571
      8        1           0.000008413    0.000044651    0.000089069
 -------------------------------------------------------------------
 Cartesian Forces:  Max     0.000089069 RMS     0.000054507

 GradGradGradGradGradGradGradGradGradGradGradGradGradGradGradGradGradGrad
 Berny optimization.
 Using GEDIIS/GDIIS optimizer.
 FormGI is forming the generalized inverse of G from B-inverse, IUseBI=4.
 Internal  Forces:  Max     0.000091593 RMS     0.000051696
 Search for a local minimum.
 Step number   3 out of a maximum of   38
 All quantities printed in internal units (Hartrees-Bohrs-Radians)
 Mixed Optimization -- En-DIIS/RFO-DIIS
 Swapping is turned off.
 Update second derivatives using D2CorX and points    1    2    3
 DE= -9.80D-06 DEPred=-9.97D-06 R= 9.83D-01
 TightC=F SS=  1.41D+00  RLast= 7.57D-03 DXNew= 5.0454D-01 2.2714D-02
 Trust test= 9.83D-01 RLast= 7.57D-03 DXMaxT set to 3.00D-01
 ITU=  1  1  0
     Eigenvalues ---    0.00280   0.05526   0.05526   0.05528   0.05528
     Eigenvalues ---    0.16000   0.16000   0.16000   0.16000   0.16000
     Eigenvalues ---    0.16887   0.33342   0.34549   0.34549   0.34549
     Eigenvalues ---    0.34550   0.34550   0.38374
 En-DIIS/RFO-DIIS IScMMF=        0 using points:     3    2
 RFO step:  Lambda=-1.38650269D-07.
 DidBck=F Rises=F RFO-DIIS coefs:    0.97346    0.02654
 Iteration  1 RMS(Cart)=  0.00026349 RMS(Int)=  0.00000004
 Iteration  2 RMS(Cart)=  0.00000004 RMS(Int)=  0.00000000
 ClnCor:  largest displacement from symmetrization is 2.97D-10 for atom     7.
 Variable       Old X    -DE/DX   Delta X   Delta X   Delta X     New X
                                 (Linear)    (Quad)   (Total)
    R1        2.91214   0.00009   0.00016   0.00003   0.00019   2.91233
    R2        2.07062  -0.00009   0.00003  -0.00030  -0.00027   2.07035
    R3        2.07058  -0.00009   0.00003  -0.00030  -0.00028   2.07031
    R4        2.07051  -0.00009   0.00003  -0.00030  -0.00027   2.07024
    R5        2.07051  -0.00009   0.00003  -0.00030  -0.00027   2.07024
    R6        2.07058  -0.00009   0.00003  -0.00030  -0.00028   2.07031
    R7        2.07062  -0.00009   0.00003  -0.00030  -0.00027   2.07035
    A1        1.93147   0.00004   0.00003   0.00018   0.00021   1.93168
    A2        1.93148   0.00004   0.00003   0.00017   0.00020   1.93168
    A3        1.93160   0.00004   0.00003   0.00017   0.00021   1.93181
    A4        1.88913  -0.00004  -0.00003  -0.00018  -0.00021   1.88892
    A5        1.88933  -0.00004  -0.00003  -0.00018  -0.00021   1.88912
    A6        1.88942  -0.00004  -0.00003  -0.00018  -0.00021   1.88920
    A7        1.93160   0.00004   0.00003   0.00017   0.00021   1.93181
    A8        1.93148   0.00004   0.00003   0.00017   0.00020   1.93168
    A9        1.93147   0.00004   0.00003   0.00018   0.00021   1.93168
   A10        1.88942  -0.00004  -0.00003  -0.00018  -0.00021   1.88920
   A11        1.88933  -0.00004  -0.00003  -0.00018  -0.00021   1.88912
   A12        1.88913  -0.00004  -0.00003  -0.00018  -0.00021   1.88892
    D1        1.04712   0.00000   0.00000   0.00000   0.00000   1.04712
    D2       -1.04746   0.00000   0.00000   0.00000   0.00000  -1.04746
    D3        3.14159   0.00000   0.00000   0.00000   0.00000   3.14159
    D4       -1.04701   0.00000   0.00000   0.00000  -0.00001  -1.04702
    D5        3.14159   0.00000   0.00000   0.00000   0.00000   3.14159
    D6        1.04746   0.00000   0.00000   0.00000   0.00000   1.04746
    D7        3.14159   0.00000   0.00000   0.00000   0.00000   3.14159
    D8        1.04701   0.00000   0.00000   0.00000   0.00001   1.04702
    D9       -1.04712   0.00000   0.00000   0.00000   0.00000  -1.04712
         Item               Value     Threshold  Converged?
 Maximum Force            0.000092     0.000450     YES
 RMS     Force            0.000052     0.000300     YES
 Maximum Displacement     0.000422     0.001800     YES
 RMS     Displacement     0.000263     0.001200     YES
 Predicted change in Energy=-1.310964D-07
 Optimization completed.
    -- Stationary point found.
                           ----------------------------
                           !   Optimized Parameters   !
                           ! (Angstroms and Degrees)  !
 --------------------------                            --------------------------
 ! Name  Definition              Value          Derivative Info.                !
 --------------------------------------------------------------------------------
 ! R1    R(1,2)                  1.541          -DE/DX =    0.0001              !
 ! R2    R(1,3)                  1.0957         -DE/DX =   -0.0001              !
 ! R3    R(1,4)                  1.0957         -DE/DX =   -0.0001              !
 ! R4    R(1,5)                  1.0957         -DE/DX =   -0.0001              !
 ! R5    R(2,6)                  1.0957         -DE/DX =   -0.0001              !
 ! R6    R(2,7)                  1.0957         -DE/DX =   -0.0001              !
 ! R7    R(2,8)                  1.0957         -DE/DX =   -0.0001              !
 ! A1    A(2,1,3)              110.665          -DE/DX =    0.0                 !
 ! A2    A(2,1,4)              110.6658         -DE/DX =    0.0                 !
 ! A3    A(2,1,5)              110.6726         -DE/DX =    0.0                 !
 ! A4    A(3,1,4)              108.2392         -DE/DX =    0.0                 !
 ! A5    A(3,1,5)              108.2509         -DE/DX =    0.0                 !
 ! A6    A(4,1,5)              108.2556         -DE/DX =    0.0                 !
 ! A7    A(1,2,6)              110.6726         -DE/DX =    0.0                 !
 ! A8    A(1,2,7)              110.6658         -DE/DX =    0.0                 !
 ! A9    A(1,2,8)              110.665          -DE/DX =    0.0                 !
 ! A10   A(6,2,7)              108.2556         -DE/DX =    0.0                 !
 ! A11   A(6,2,8)              108.2509         -DE/DX =    0.0                 !
 ! A12   A(7,2,8)              108.2392         -DE/DX =    0.0                 !
 ! D1    D(3,1,2,6)             59.9958         -DE/DX =    0.0                 !
 ! D2    D(3,1,2,7)            -60.0149         -DE/DX =    0.0                 !
 ! D3    D(3,1,2,8)            180.0            -DE/DX =    0.0                 !
 ! D4    D(4,1,2,6)            -59.9893         -DE/DX =    0.0                 !
 ! D5    D(4,1,2,7)            180.0            -DE/DX =    0.0                 !
 ! D6    D(4,1,2,8)             60.0149         -DE/DX =    0.0                 !
 ! D7    D(5,1,2,6)            180.0            -DE/DX =    0.0                 !
 ! D8    D(5,1,2,7)             59.9893         -DE/DX =    0.0                 !
 ! D9    D(5,1,2,8)            -59.9958         -DE/DX =    0.0                 !
 --------------------------------------------------------------------------------
 GradGradGradGradGradGradGradGradGradGradGradGradGradGradGradGradGradGrad

                          Input orientation:                          
 ---------------------------------------------------------------------
 Center     Atomic      Atomic             Coordinates (Angstroms)
 Number     Number       Type             X           Y           Z
 ---------------------------------------------------------------------
      1          6           0       -6.389843    0.651152   -0.000055
      2          6           0       -4.850867    0.571478    0.000055
      3          1           0       -6.758731    1.006255    0.968674
      4          1           0       -6.828057   -0.334283   -0.193595
      5          1           0       -6.741376    1.341313   -0.775029
      6          1           0       -4.499334   -0.118683    0.775029
      7          1           0       -4.412653    1.556913    0.193595
      8          1           0       -4.481979    0.216375   -0.968674
 ---------------------------------------------------------------------
                    Distance matrix (angstroms):
                    1          2          3          4          5
     1  C    0.000000
     2  C    1.541037   0.000000
     3  H    1.095725   2.183392   0.000000
     4  H    1.095706   2.183388   1.775589   0.000000
     5  H    1.095666   2.183444   1.775688   1.775726   0.000000
     6  H    2.183444   1.095666   2.531375   2.531337   3.092091
     7  H    2.183388   1.095706   2.531414   3.092041   2.531337
     8  H    2.183392   1.095725   3.092059   2.531414   2.531375
                    6          7          8
     6  H    0.000000
     7  H    1.775726   0.000000
     8  H    1.775688   1.775589   0.000000
 Stoichiometry    C2H6
 Framework group  CI[X(C2H6)]
 Deg. of freedom     9
 Full point group                 CI      NOp   2
 Largest Abelian subgroup         CI      NOp   2
 Largest concise Abelian subgroup CI      NOp   2
                         Standard orientation:                         
 ---------------------------------------------------------------------
 Center     Atomic      Atomic             Coordinates (Angstroms)
 Number     Number       Type             X           Y           Z
 ---------------------------------------------------------------------
      1          6           0       -0.769488    0.039837   -0.000055
      2          6           0        0.769488   -0.039837    0.000055
      3          1           0       -1.138376    0.394940    0.968674
      4          1           0       -1.207702   -0.945598   -0.193595
      5          1           0       -1.121021    0.729998   -0.775029
      6          1           0        1.121021   -0.729998    0.775029
      7          1           0        1.207702    0.945598    0.193595
      8          1           0        1.138376   -0.394940   -0.968674
 ---------------------------------------------------------------------
 Rotational constants (GHZ):     79.5204160     19.7999061     19.7994538

 **********************************************************************

            Population analysis using the SCF density.

 **********************************************************************

 Orbital symmetries:
       Occupied  (AU) (AG) (AG) (AU) (AU) (AU) (AG) (AG) (AG)
       Virtual   (AU) (AU) (AU) (AG) (AU) (AG) (AG)
 The electronic state is 1-AG.
 Alpha  occ. eigenvalues --  -10.37231 -10.37159  -0.80705  -0.66586  -0.47064
 Alpha  occ. eigenvalues --   -0.47060  -0.38447  -0.37248  -0.37243
 Alpha virt. eigenvalues --    0.48293   0.48305   0.48973   0.55257   0.59162
 Alpha virt. eigenvalues --    0.59560   0.59577
          Condensed to atoms (all electrons):
               1          2          3          4          5          6
     1  C    4.759606   0.360973   0.382503   0.382510   0.382529  -0.019812
     2  C    0.360973   4.759606  -0.019819  -0.019815  -0.019812   0.382529
     3  H    0.382503  -0.019819   0.611964  -0.020812  -0.020806  -0.002188
     4  H    0.382510  -0.019815  -0.020812   0.611909  -0.020798  -0.002188
     5  H    0.382529  -0.019812  -0.020806  -0.020798   0.611870   0.001816
     6  H   -0.019812   0.382529  -0.002188  -0.002188   0.001816   0.611870
     7  H   -0.019815   0.382510  -0.002188   0.001816  -0.002188  -0.020798
     8  H   -0.019819   0.382503   0.001817  -0.002188  -0.002188  -0.020806
               7          8
     1  C   -0.019815  -0.019819
     2  C    0.382510   0.382503
     3  H   -0.002188   0.001817
     4  H    0.001816  -0.002188
     5  H   -0.002188  -0.002188
     6  H   -0.020798  -0.020806
     7  H    0.611909  -0.020812
     8  H   -0.020812   0.611964
 Mulliken charges:
               1
     1  C   -0.208675
     2  C   -0.208675
     3  H    0.069531
     4  H    0.069567
     5  H    0.069578
     6  H    0.069578
     7  H    0.069567
     8  H    0.069531
 Sum of Mulliken charges =   0.00000
 Mulliken charges with hydrogens summed into heavy atoms:
               1
     1  C    0.000000
     2  C    0.000000
 Electronic spatial extent (au):  <R**2>=            107.8050
 Charge=              0.0000 electrons
 Dipole moment (field-independent basis, Debye):
    X=              0.0000    Y=              0.0000    Z=              0.0000  Tot=              0.0000
 Quadrupole moment (field-independent basis, Debye-Ang):
   XX=            -14.2056   YY=            -13.8462   ZZ=            -13.8456
   XY=              0.0188   XZ=              0.0003   YZ=             -0.0005
 Traceless Quadrupole moment (field-independent basis, Debye-Ang):
   XX=             -0.2398   YY=              0.1196   ZZ=              0.1203
   XY=              0.0188   XZ=              0.0003   YZ=             -0.0005
 Octapole moment (field-independent basis, Debye-Ang**2):
  XXX=              0.0000  YYY=              0.0000  ZZZ=              0.0000  XYY=              0.0000
  XXY=              0.0000  XXZ=              0.0000  XZZ=              0.0000  YZZ=              0.0000
  YYZ=              0.0000  XYZ=              0.0000
 Hexadecapole moment (field-independent basis, Debye-Ang**3):
 XXXX=            -84.8778 YYYY=            -25.1997 ZZZZ=            -24.8332 XXXY=              1.7619
 XXXZ=              0.0052 YYYX=              2.4421 YYYZ=             -0.1090 ZZZX=             -0.7054
 ZZZY=              0.0366 XXYY=            -16.9327 XXZZ=            -17.1157 YYZZ=             -8.1875
 XXYZ=              0.0721 YYXZ=              0.6992 ZZXY=             -0.6435
 N-N= 4.202943102811D+01 E-N=-2.656739463125D+02  KE= 7.760014902715D+01
 Symmetry AG   KE= 4.036718394071D+01
 Symmetry AU   KE= 3.723296508644D+01
 1\1\GINC-N0286\FOpt\RM062X\STO-3G\C2H6\GDAVIDS3\21-Feb-2017\0\\#n M062
 X/STO-3G Opt\\Ethane M062X STO-3G\\0,1\C,-6.3898428449,0.6511520787,-0
 .0000548187\C,-4.8508671551,0.5714779213,0.0000548187\H,-6.7587310631,
 1.0062548264,0.9686743876\H,-6.8280573325,-0.3342832075,-0.1935945488\
 H,-6.7413762529,1.3413131068,-0.7750292137\H,-4.4993337471,-0.11868310
 68,0.7750292137\H,-4.4126526675,1.5569132075,0.1935945488\H,-4.4819789
 369,0.2163751736,-0.9686743876\\Version=ES64L-G09RevE.01\State=1-AG\HF
 =-78.8667121\RMSD=7.781e-09\RMSF=5.451e-05\Dipole=0.,0.,0.\Quadrupole=
 -0.1782999,0.0888959,0.089404,0.0139441,0.0002221,-0.0003421\PG=CI [X(
 C2H6)]\\@


 LENDING MONEY TO FRIENDS CAUSES THEM TO LOSE THEIR MEMORIES.

    --  PETER'S THEORY OF RECIPROCAL INHIBITION OF FISCAL RECALL
 Job cpu time:       0 days  0 hours  0 minutes 28.5 seconds.
 File lengths (MBytes):  RWF=      5 Int=      0 D2E=      0 Chk=      1 Scr=      1
 Normal termination of Gaussian 09 at Tue Feb 21 17:19:11 2017.
