 Entering Gaussian System, Link 0=g09
 Input=Ethane_M062X_6-31Gd.com
 Output=Ethane_M062X_6-31Gd.log
 Initial command:
 /sw/contrib/gaussian/g09/E01/g09/l1.exe "/scr/Gau-29421.inp" -scrdir="/scr/"
 Entering Link 1 = /sw/contrib/gaussian/g09/E01/g09/l1.exe PID=     29422.
  
 Copyright (c) 1988,1990,1992,1993,1995,1998,2003,2009,2015,
            Gaussian, Inc.  All Rights Reserved.
  
 This is part of the Gaussian(R) 09 program.  It is based on
 the Gaussian(R) 03 system (copyright 2003, Gaussian, Inc.),
 the Gaussian(R) 98 system (copyright 1998, Gaussian, Inc.),
 the Gaussian(R) 94 system (copyright 1995, Gaussian, Inc.),
 the Gaussian 92(TM) system (copyright 1992, Gaussian, Inc.),
 the Gaussian 90(TM) system (copyright 1990, Gaussian, Inc.),
 the Gaussian 88(TM) system (copyright 1988, Gaussian, Inc.),
 the Gaussian 86(TM) system (copyright 1986, Carnegie Mellon
 University), and the Gaussian 82(TM) system (copyright 1983,
 Carnegie Mellon University). Gaussian is a federally registered
 trademark of Gaussian, Inc.
  
 This software contains proprietary and confidential information,
 including trade secrets, belonging to Gaussian, Inc.
  
 This software is provided under written license and may be
 used, copied, transmitted, or stored only in accord with that
 written license.
  
 The following legend is applicable only to US Government
 contracts under FAR:
  
                    RESTRICTED RIGHTS LEGEND
  
 Use, reproduction and disclosure by the US Government is
 subject to restrictions as set forth in subparagraphs (a)
 and (c) of the Commercial Computer Software - Restricted
 Rights clause in FAR 52.227-19.
  
 Gaussian, Inc.
 340 Quinnipiac St., Bldg. 40, Wallingford CT 06492
  
  
 ---------------------------------------------------------------
 Warning -- This program may not be used in any manner that
 competes with the business of Gaussian, Inc. or will provide
 assistance to any competitor of Gaussian, Inc.  The licensee
 of this program is prohibited from giving any competitor of
 Gaussian, Inc. access to this program.  By using this program,
 the user acknowledges that Gaussian, Inc. is engaged in the
 business of creating and licensing software in the field of
 computational chemistry and represents and warrants to the
 licensee that it is not a competitor of Gaussian, Inc. and that
 it will not use this program in any manner prohibited above.
 ---------------------------------------------------------------
  

 Cite this work as:
 Gaussian 09, Revision E.01,
 M. J. Frisch, G. W. Trucks, H. B. Schlegel, G. E. Scuseria, 
 M. A. Robb, J. R. Cheeseman, G. Scalmani, V. Barone, B. Mennucci, 
 G. A. Petersson, H. Nakatsuji, M. Caricato, X. Li, H. P. Hratchian, 
 A. F. Izmaylov, J. Bloino, G. Zheng, J. L. Sonnenberg, M. Hada, 
 M. Ehara, K. Toyota, R. Fukuda, J. Hasegawa, M. Ishida, T. Nakajima, 
 Y. Honda, O. Kitao, H. Nakai, T. Vreven, J. A. Montgomery, Jr., 
 J. E. Peralta, F. Ogliaro, M. Bearpark, J. J. Heyd, E. Brothers, 
 K. N. Kudin, V. N. Staroverov, T. Keith, R. Kobayashi, J. Normand, 
 K. Raghavachari, A. Rendell, J. C. Burant, S. S. Iyengar, J. Tomasi, 
 M. Cossi, N. Rega, J. M. Millam, M. Klene, J. E. Knox, J. B. Cross, 
 V. Bakken, C. Adamo, J. Jaramillo, R. Gomperts, R. E. Stratmann, 
 O. Yazyev, A. J. Austin, R. Cammi, C. Pomelli, J. W. Ochterski, 
 R. L. Martin, K. Morokuma, V. G. Zakrzewski, G. A. Voth, 
 P. Salvador, J. J. Dannenberg, S. Dapprich, A. D. Daniels, 
 O. Farkas, J. B. Foresman, J. V. Ortiz, J. Cioslowski, 
 and D. J. Fox, Gaussian, Inc., Wallingford CT, 2013.
 
 ******************************************
 Gaussian 09:  ES64L-G09RevE.01 30-Nov-2015
                21-Feb-2017 
 ******************************************
 %NProcShared=8
 Will use up to    8 processors via shared memory.
 ---------------------
 #n M062X/6-31G(d) Opt
 ---------------------
 1/14=-1,18=20,19=15,26=3,38=1/1,3;
 2/9=110,12=2,17=6,18=5,40=1/2;
 3/5=1,6=6,7=1,11=2,16=1,25=1,30=1,71=1,74=-55/1,2,3;
 4//1;
 5/5=2,38=5/2;
 6/7=2,8=2,9=2,10=2,28=1/1;
 7//1,2,3,16;
 1/14=-1,18=20,19=15,26=3/3(2);
 2/9=110/2;
 99//99;
 2/9=110/2;
 3/5=1,6=6,7=1,11=2,16=1,25=1,30=1,71=1,74=-55/1,2,3;
 4/5=5,16=3,69=1/1;
 5/5=2,38=5/2;
 7//1,2,3,16;
 1/14=-1,18=20,19=15,26=3/3(-5);
 2/9=110/2;
 6/7=2,8=2,9=2,10=2,19=2,28=1/1;
 99/9=1/99;
 -------------------
 Ethane M062X 6-31Gd
 -------------------
 Symbolic Z-matrix:
 Charge =  0 Multiplicity = 1
 C                    -6.3877    0.65101   0. 
 C                    -4.85301   0.57162   0. 
 H                    -6.75069   1.00542   0.96733 
 H                    -6.81994  -0.3333   -0.19339 
 H                    -6.73338   1.33993  -0.77394 
 H                    -4.50733  -0.1173    0.77394 
 H                    -4.42077   1.55593   0.19339 
 H                    -4.49002   0.21721  -0.96733 
 

 GradGradGradGradGradGradGradGradGradGradGradGradGradGradGradGradGradGrad
 Berny optimization.
 Initialization pass.
                           ----------------------------
                           !    Initial Parameters    !
                           ! (Angstroms and Degrees)  !
 --------------------------                            --------------------------
 ! Name  Definition              Value          Derivative Info.                !
 --------------------------------------------------------------------------------
 ! R1    R(1,2)                  1.5367         estimate D2E/DX2                !
 ! R2    R(1,3)                  1.0923         estimate D2E/DX2                !
 ! R3    R(1,4)                  1.0923         estimate D2E/DX2                !
 ! R4    R(1,5)                  1.0923         estimate D2E/DX2                !
 ! R5    R(2,6)                  1.0923         estimate D2E/DX2                !
 ! R6    R(2,7)                  1.0923         estimate D2E/DX2                !
 ! R7    R(2,8)                  1.0923         estimate D2E/DX2                !
 ! A1    A(2,1,3)              110.4041         estimate D2E/DX2                !
 ! A2    A(2,1,4)              110.4039         estimate D2E/DX2                !
 ! A3    A(2,1,5)              110.4038         estimate D2E/DX2                !
 ! A4    A(3,1,4)              108.5227         estimate D2E/DX2                !
 ! A5    A(3,1,5)              108.5224         estimate D2E/DX2                !
 ! A6    A(4,1,5)              108.5227         estimate D2E/DX2                !
 ! A7    A(1,2,6)              110.4038         estimate D2E/DX2                !
 ! A8    A(1,2,7)              110.4039         estimate D2E/DX2                !
 ! A9    A(1,2,8)              110.4041         estimate D2E/DX2                !
 ! A10   A(6,2,7)              108.5227         estimate D2E/DX2                !
 ! A11   A(6,2,8)              108.5224         estimate D2E/DX2                !
 ! A12   A(7,2,8)              108.5227         estimate D2E/DX2                !
 ! D1    D(3,1,2,6)             60.0002         estimate D2E/DX2                !
 ! D2    D(3,1,2,7)            -59.9998         estimate D2E/DX2                !
 ! D3    D(3,1,2,8)            180.0            estimate D2E/DX2                !
 ! D4    D(4,1,2,6)            -60.0            estimate D2E/DX2                !
 ! D5    D(4,1,2,7)            180.0            estimate D2E/DX2                !
 ! D6    D(4,1,2,8)             59.9998         estimate D2E/DX2                !
 ! D7    D(5,1,2,6)            180.0            estimate D2E/DX2                !
 ! D8    D(5,1,2,7)             60.0            estimate D2E/DX2                !
 ! D9    D(5,1,2,8)            -60.0002         estimate D2E/DX2                !
 --------------------------------------------------------------------------------
 Trust Radius=3.00D-01 FncErr=1.00D-07 GrdErr=1.00D-06
 Number of steps in this run=     38 maximum allowed number of steps=    100.
 GradGradGradGradGradGradGradGradGradGradGradGradGradGradGradGradGradGrad

                          Input orientation:                          
 ---------------------------------------------------------------------
 Center     Atomic      Atomic             Coordinates (Angstroms)
 Number     Number       Type             X           Y           Z
 ---------------------------------------------------------------------
      1          6           0       -6.387700    0.651010    0.000000
      2          6           0       -4.853010    0.571620    0.000000
      3          1           0       -6.750690    1.005420    0.967330
      4          1           0       -6.819940   -0.333300   -0.193390
      5          1           0       -6.733380    1.339930   -0.773940
      6          1           0       -4.507330   -0.117300    0.773940
      7          1           0       -4.420770    1.555930    0.193390
      8          1           0       -4.490020    0.217210   -0.967330
 ---------------------------------------------------------------------
                    Distance matrix (angstroms):
                    1          2          3          4          5
     1  C    0.000000
     2  C    1.536742   0.000000
     3  H    1.092289   2.173729   0.000000
     4  H    1.092290   2.173728   1.773200   0.000000
     5  H    1.092286   2.173724   1.773194   1.773198   0.000000
     6  H    2.173724   1.092286   2.516061   2.516058   3.078108
     7  H    2.173728   1.092290   2.516063   3.078117   2.516058
     8  H    2.173729   1.092289   3.078118   2.516063   2.516061
                    6          7          8
     6  H    0.000000
     7  H    1.773198   0.000000
     8  H    1.773194   1.773200   0.000000
 This structure is nearly, but not quite of a higher symmetry.
 Consider Symm=Loose if the higher symmetry is desired.
 Stoichiometry    C2H6
 Framework group  CI[X(C2H6)]
 Deg. of freedom     9
 Full point group                 CI      NOp   2
 Largest Abelian subgroup         CI      NOp   2
 Largest concise Abelian subgroup CI      NOp   2
                         Standard orientation:                         
 ---------------------------------------------------------------------
 Center     Atomic      Atomic             Coordinates (Angstroms)
 Number     Number       Type             X           Y           Z
 ---------------------------------------------------------------------
      1          6           0       -0.767345    0.039695    0.000000
      2          6           0        0.767345   -0.039695    0.000000
      3          1           0       -1.130335    0.394105    0.967330
      4          1           0       -1.199585   -0.944615   -0.193390
      5          1           0       -1.113025    0.728615   -0.773940
      6          1           0        1.113025   -0.728615    0.773940
      7          1           0        1.199585    0.944615    0.193390
      8          1           0        1.130335   -0.394105   -0.967330
 ---------------------------------------------------------------------
 Rotational constants (GHZ):     79.7421566     19.9565168     19.9564985
 Standard basis: 6-31G(d) (6D, 7F)
 There are    21 symmetry adapted cartesian basis functions of AG  symmetry.
 There are    21 symmetry adapted cartesian basis functions of AU  symmetry.
 There are    21 symmetry adapted basis functions of AG  symmetry.
 There are    21 symmetry adapted basis functions of AU  symmetry.
    42 basis functions,    80 primitive gaussians,    42 cartesian basis functions
     9 alpha electrons        9 beta electrons
       nuclear repulsion energy        42.1695770054 Hartrees.
 NAtoms=    8 NActive=    8 NUniq=    4 SFac= 4.00D+00 NAtFMM=   60 NAOKFM=F Big=F
 Integral buffers will be    131072 words long.
 Raffenetti 2 integral format.
 Two-electron integral symmetry is turned on.
 One-electron integrals computed using PRISM.
 NBasis=    42 RedAO= T EigKep=  5.92D-03  NBF=    21    21
 NBsUse=    42 1.00D-06 EigRej= -1.00D+00 NBFU=    21    21
 ExpMin= 1.61D-01 ExpMax= 3.05D+03 ExpMxC= 4.57D+02 IAcc=1 IRadAn=         1 AccDes= 0.00D+00
 Harris functional with IExCor= 1009 and IRadAn=       1 diagonalized for initial guess.
 HarFok:  IExCor= 1009 AccDes= 0.00D+00 IRadAn=         1 IDoV= 1 UseB2=F ITyADJ=14
 ICtDFT=  3500011 ScaDFX=  1.000000  1.000000  1.000000  1.000000
 FoFCou: FMM=F IPFlag=           0 FMFlag=      100000 FMFlg1=           0
         NFxFlg=           0 DoJE=T BraDBF=F KetDBF=T FulRan=T
         wScrn=  0.000000 ICntrl=     500 IOpCl=  0 I1Cent=   200000004 NGrid=           0
         NMat0=    1 NMatS0=      1 NMatT0=    0 NMatD0=    1 NMtDS0=    0 NMtDT0=    0
 Petite list used in FoFCou.
 Initial guess orbital symmetries:
       Occupied  (AG) (AU) (AG) (AU) (AU) (AU) (AG) (AG) (AG)
       Virtual   (AG) (AU) (AU) (AU) (AG) (AG) (AU) (AG) (AU) (AU)
                 (AG) (AG) (AU) (AU) (AU) (AG) (AG) (AG) (AU) (AG)
                 (AU) (AU) (AU) (AG) (AG) (AG) (AU) (AU) (AG) (AG)
                 (AU) (AG) (AU)
 The electronic state of the initial guess is 1-AG.
 Keep R1 ints in memory in symmetry-blocked form, NReq=1296466.
 Requested convergence on RMS density matrix=1.00D-08 within 128 cycles.
 Requested convergence on MAX density matrix=1.00D-06.
 Requested convergence on             energy=1.00D-06.
 No special actions if energy rises.
 Integral accuracy reduced to 1.0D-05 until final iterations.
 Initial convergence to 1.0D-05 achieved.  Increase integral accuracy.
 SCF Done:  E(RM062X) =  -79.7716415891     A.U. after   12 cycles
            NFock= 12  Conv=0.12D-08     -V/T= 2.0094

 **********************************************************************

            Population analysis using the SCF density.

 **********************************************************************

 Orbital symmetries:
       Occupied  (AG) (AU) (AG) (AU) (AU) (AU) (AG) (AG) (AG)
       Virtual   (AG) (AU) (AU) (AU) (AG) (AG) (AU) (AG) (AU) (AU)
                 (AG) (AG) (AU) (AU) (AU) (AG) (AG) (AG) (AU) (AG)
                 (AU) (AU) (AU) (AG) (AG) (AG) (AU) (AU) (AG) (AG)
                 (AU) (AG) (AU)
 The electronic state is 1-AG.
 Alpha  occ. eigenvalues --  -10.52919 -10.52885  -0.84385  -0.69588  -0.50020
 Alpha  occ. eigenvalues --   -0.50019  -0.41753  -0.40193  -0.40191
 Alpha virt. eigenvalues --    0.14974   0.20803   0.21484   0.21485   0.23542
 Alpha virt. eigenvalues --    0.23543   0.28292   0.56219   0.59029   0.59030
 Alpha virt. eigenvalues --    0.68197   0.68197   0.72929   0.95422   0.95428
 Alpha virt. eigenvalues --    0.97918   0.99244   0.99247   1.05770   1.10760
 Alpha virt. eigenvalues --    1.47302   1.57867   1.57870   1.97862   2.04718
 Alpha virt. eigenvalues --    2.04726   2.33662   2.33679   2.36731   2.36744
 Alpha virt. eigenvalues --    2.61785   4.18237   4.40084
          Condensed to atoms (all electrons):
               1          2          3          4          5          6
     1  C    5.067139   0.354763   0.388184   0.388176   0.388190  -0.035749
     2  C    0.354763   5.067139  -0.035746  -0.035751  -0.035749   0.388190
     3  H    0.388184  -0.035746   0.548457  -0.028968  -0.028977  -0.003532
     4  H    0.388176  -0.035751  -0.028968   0.548455  -0.028970  -0.003531
     5  H    0.388190  -0.035749  -0.028977  -0.028970   0.548484   0.004371
     6  H   -0.035749   0.388190  -0.003532  -0.003531   0.004371   0.548484
     7  H   -0.035751   0.388176  -0.003532   0.004371  -0.003531  -0.028970
     8  H   -0.035746   0.388184   0.004371  -0.003532  -0.003532  -0.028977
               7          8
     1  C   -0.035751  -0.035746
     2  C    0.388176   0.388184
     3  H   -0.003532   0.004371
     4  H    0.004371  -0.003532
     5  H   -0.003531  -0.003532
     6  H   -0.028970  -0.028977
     7  H    0.548455  -0.028968
     8  H   -0.028968   0.548457
 Mulliken charges:
               1
     1  C   -0.479206
     2  C   -0.479206
     3  H    0.159743
     4  H    0.159750
     5  H    0.159714
     6  H    0.159714
     7  H    0.159750
     8  H    0.159743
 Sum of Mulliken charges =   0.00000
 Mulliken charges with hydrogens summed into heavy atoms:
               1
     1  C    0.000000
     2  C    0.000000
 Electronic spatial extent (au):  <R**2>=            109.3640
 Charge=              0.0000 electrons
 Dipole moment (field-independent basis, Debye):
    X=              0.0000    Y=              0.0000    Z=              0.0000  Tot=              0.0000
 Quadrupole moment (field-independent basis, Debye-Ang):
   XX=            -15.4160   YY=            -14.6952   ZZ=            -14.6937
   XY=              0.0377   XZ=             -0.0002   YZ=              0.0001
 Traceless Quadrupole moment (field-independent basis, Debye-Ang):
   XX=             -0.4810   YY=              0.2398   ZZ=              0.2413
   XY=              0.0377   XZ=             -0.0002   YZ=              0.0001
 Octapole moment (field-independent basis, Debye-Ang**2):
  XXX=              0.0000  YYY=              0.0000  ZZZ=              0.0000  XYY=              0.0000
  XXY=              0.0000  XXZ=              0.0000  XZZ=              0.0000  YZZ=              0.0000
  YYZ=              0.0000  XYZ=              0.0000
 Hexadecapole moment (field-independent basis, Debye-Ang**3):
 XXXX=            -92.8116 YYYY=            -28.8889 ZZZZ=            -28.5057 XXXY=              1.8610
 XXXZ=              0.0053 YYYX=              2.5891 YYYZ=             -0.1116 ZZZX=             -0.7220
 ZZZY=              0.0375 XXYY=            -18.9379 XXZZ=            -19.1256 YYZZ=             -9.4109
 XXYZ=              0.0746 YYXZ=              0.7158 ZZXY=             -0.6289
 N-N= 4.216957700541D+01 E-N=-2.681202422105D+02  KE= 7.902725730447D+01
 Symmetry AG   KE= 4.101876252560D+01
 Symmetry AU   KE= 3.800849477887D+01
 Calling FoFJK, ICntrl=      2127 FMM=F ISym2X=1 I1Cent= 0 IOpClX= 0 NMat=1 NMatS=1 NMatT=0.
 ***** Axes restored to original set *****
 -------------------------------------------------------------------
 Center     Atomic                   Forces (Hartrees/Bohr)
 Number     Number              X              Y              Z
 -------------------------------------------------------------------
      1        6           0.008760559   -0.000465011   -0.000008592
      2        6          -0.008760559    0.000465011    0.000008592
      3        1          -0.001946440    0.000119723   -0.000003772
      4        1          -0.001929041    0.000060950    0.000030136
      5        1          -0.001945625    0.000140348   -0.000018676
      6        1           0.001945625   -0.000140348    0.000018676
      7        1           0.001929041   -0.000060950   -0.000030136
      8        1           0.001946440   -0.000119723    0.000003772
 -------------------------------------------------------------------
 Cartesian Forces:  Max     0.008760559 RMS     0.002712594

 GradGradGradGradGradGradGradGradGradGradGradGradGradGradGradGradGradGrad
 Berny optimization.
 FormGI is forming the generalized inverse of G from B-inverse, IUseBI=4.
 Internal  Forces:  Max     0.002942967 RMS     0.001365577
 Search for a local minimum.
 Step number   1 out of a maximum of   38
 All quantities printed in internal units (Hartrees-Bohrs-Radians)
 Mixed Optimization -- RFO/linear search
 Second derivative matrix not updated -- first step.
 ITU=  0
     Eigenvalues ---    0.00280   0.05575   0.05575   0.05575   0.05575
     Eigenvalues ---    0.16000   0.16000   0.16000   0.16000   0.16000
     Eigenvalues ---    0.16000   0.28809   0.34549   0.34549   0.34549
     Eigenvalues ---    0.34549   0.34550   0.34550
 RFO step:  Lambda=-2.91890998D-04 EMin= 2.79920382D-03
 Linear search not attempted -- first point.
 Iteration  1 RMS(Cart)=  0.00863047 RMS(Int)=  0.00006957
 Iteration  2 RMS(Cart)=  0.00006029 RMS(Int)=  0.00004087
 Iteration  3 RMS(Cart)=  0.00000000 RMS(Int)=  0.00004087
 ClnCor:  largest displacement from symmetrization is 6.30D-09 for atom     8.
 Variable       Old X    -DE/DX   Delta X   Delta X   Delta X     New X
                                 (Linear)    (Quad)   (Total)
    R1        2.90402  -0.00294   0.00000  -0.01020  -0.01020   2.89382
    R2        2.06413   0.00068   0.00000   0.00197   0.00197   2.06610
    R3        2.06413   0.00070   0.00000   0.00203   0.00203   2.06616
    R4        2.06412   0.00072   0.00000   0.00208   0.00208   2.06620
    R5        2.06412   0.00072   0.00000   0.00208   0.00208   2.06620
    R6        2.06413   0.00070   0.00000   0.00203   0.00203   2.06616
    R7        2.06413   0.00068   0.00000   0.00197   0.00197   2.06610
    A1        1.92691   0.00182   0.00000   0.01131   0.01125   1.93816
    A2        1.92691   0.00179   0.00000   0.01120   0.01114   1.93805
    A3        1.92691   0.00181   0.00000   0.01133   0.01127   1.93818
    A4        1.89408  -0.00187   0.00000  -0.01174  -0.01180   1.88227
    A5        1.89407  -0.00189   0.00000  -0.01186  -0.01192   1.88216
    A6        1.89408  -0.00185   0.00000  -0.01139  -0.01145   1.88262
    A7        1.92691   0.00181   0.00000   0.01133   0.01127   1.93818
    A8        1.92691   0.00179   0.00000   0.01120   0.01114   1.93805
    A9        1.92691   0.00182   0.00000   0.01131   0.01125   1.93816
   A10        1.89408  -0.00185   0.00000  -0.01139  -0.01145   1.88262
   A11        1.89407  -0.00189   0.00000  -0.01186  -0.01192   1.88216
   A12        1.89408  -0.00187   0.00000  -0.01174  -0.01180   1.88227
    D1        1.04720   0.00001   0.00000   0.00019   0.00019   1.04739
    D2       -1.04719  -0.00001   0.00000  -0.00013  -0.00013  -1.04733
    D3        3.14159   0.00000   0.00000   0.00000   0.00000   3.14159
    D4       -1.04720   0.00002   0.00000   0.00032   0.00032  -1.04688
    D5        3.14159   0.00000   0.00000   0.00000   0.00000   3.14159
    D6        1.04719   0.00001   0.00000   0.00013   0.00013   1.04733
    D7        3.14159   0.00000   0.00000   0.00000   0.00000   3.14159
    D8        1.04720  -0.00002   0.00000  -0.00032  -0.00032   1.04688
    D9       -1.04720  -0.00001   0.00000  -0.00019  -0.00019  -1.04739
         Item               Value     Threshold  Converged?
 Maximum Force            0.002943     0.000450     NO 
 RMS     Force            0.001366     0.000300     NO 
 Maximum Displacement     0.017503     0.001800     NO 
 RMS     Displacement     0.008625     0.001200     NO 
 Predicted change in Energy=-1.461918D-04
 GradGradGradGradGradGradGradGradGradGradGradGradGradGradGradGradGradGrad

                          Input orientation:                          
 ---------------------------------------------------------------------
 Center     Atomic      Atomic             Coordinates (Angstroms)
 Number     Number       Type             X           Y           Z
 ---------------------------------------------------------------------
      1          6           0       -6.385003    0.650875   -0.000031
      2          6           0       -4.855707    0.571755    0.000031
      3          1           0       -6.759939    1.004818    0.964088
      4          1           0       -6.828826   -0.329615   -0.192662
      5          1           0       -6.742642    1.338365   -0.771357
      6          1           0       -4.498068   -0.115735    0.771357
      7          1           0       -4.411884    1.552245    0.192662
      8          1           0       -4.480771    0.217812   -0.964088
 ---------------------------------------------------------------------
                    Distance matrix (angstroms):
                    1          2          3          4          5
     1  C    0.000000
     2  C    1.531342   0.000000
     3  H    1.093334   2.177854   0.000000
     4  H    1.093365   2.177797   1.767351   0.000000
     5  H    1.093385   2.177901   1.767292   1.767618   0.000000
     6  H    2.177901   1.093385   2.531569   2.531306   3.087471
     7  H    2.177797   1.093365   2.531429   3.087310   2.531306
     8  H    2.177854   1.093334   3.087369   2.531429   2.531569
                    6          7          8
     6  H    0.000000
     7  H    1.767618   0.000000
     8  H    1.767292   1.767351   0.000000
 Stoichiometry    C2H6
 Framework group  CI[X(C2H6)]
 Deg. of freedom     9
 Full point group                 CI      NOp   2
 Largest Abelian subgroup         CI      NOp   2
 Largest concise Abelian subgroup CI      NOp   2
                         Standard orientation:                         
 ---------------------------------------------------------------------
 Center     Atomic      Atomic             Coordinates (Angstroms)
 Number     Number       Type             X           Y           Z
 ---------------------------------------------------------------------
      1          6           0       -0.764648    0.039560   -0.000031
      2          6           0        0.764648   -0.039560    0.000031
      3          1           0       -1.139584    0.393503    0.964088
      4          1           0       -1.208471   -0.940930   -0.192662
      5          1           0       -1.122287    0.727050   -0.771357
      6          1           0        1.122287   -0.727050    0.771357
      7          1           0        1.208471    0.940930    0.192662
      8          1           0        1.139584   -0.393503   -0.964088
 ---------------------------------------------------------------------
 Rotational constants (GHZ):     80.2642962     19.9510863     19.9499628
 Standard basis: 6-31G(d) (6D, 7F)
 There are    21 symmetry adapted cartesian basis functions of AG  symmetry.
 There are    21 symmetry adapted cartesian basis functions of AU  symmetry.
 There are    21 symmetry adapted basis functions of AG  symmetry.
 There are    21 symmetry adapted basis functions of AU  symmetry.
    42 basis functions,    80 primitive gaussians,    42 cartesian basis functions
     9 alpha electrons        9 beta electrons
       nuclear repulsion energy        42.1762274831 Hartrees.
 NAtoms=    8 NActive=    8 NUniq=    4 SFac= 4.00D+00 NAtFMM=   60 NAOKFM=F Big=F
 Integral buffers will be    131072 words long.
 Raffenetti 2 integral format.
 Two-electron integral symmetry is turned on.
 One-electron integrals computed using PRISM.
 NBasis=    42 RedAO= T EigKep=  5.94D-03  NBF=    21    21
 NBsUse=    42 1.00D-06 EigRej= -1.00D+00 NBFU=    21    21
 Initial guess from the checkpoint file:  "/scr/Gau-29422.chk"
 B after Tr=     0.000000    0.000000    0.000000
         Rot=    1.000000    0.000000    0.000007    0.000001 Ang=   0.00 deg.
 Initial guess orbital symmetries:
       Occupied  (AG) (AU) (AG) (AU) (AU) (AU) (AG) (AG) (AG)
       Virtual   (AG) (AG) (AG) (AG) (AG) (AG) (AG) (AG) (AG) (AG)
                 (AG) (AG) (AG) (AG) (AG) (AG) (AU) (AU) (AU) (AU)
                 (AU) (AU) (AU) (AU) (AU) (AU) (AU) (AU) (AU) (AU)
                 (AU) (AU) (AU)
 Keep R1 ints in memory in symmetry-blocked form, NReq=1296466.
 Requested convergence on RMS density matrix=1.00D-08 within 128 cycles.
 Requested convergence on MAX density matrix=1.00D-06.
 Requested convergence on             energy=1.00D-06.
 No special actions if energy rises.
 SCF Done:  E(RM062X) =  -79.7718239483     A.U. after    7 cycles
            NFock=  7  Conv=0.44D-08     -V/T= 2.0095
 Calling FoFJK, ICntrl=      2127 FMM=F ISym2X=1 I1Cent= 0 IOpClX= 0 NMat=1 NMatS=1 NMatT=0.
 ***** Axes restored to original set *****
 -------------------------------------------------------------------
 Center     Atomic                   Forces (Hartrees/Bohr)
 Number     Number              X              Y              Z
 -------------------------------------------------------------------
      1        6           0.003436643   -0.000195958   -0.000026057
      2        6          -0.003436643    0.000195958    0.000026057
      3        1          -0.000405511    0.000071902    0.000093918
      4        1          -0.000409475   -0.000074154    0.000000806
      5        1          -0.000404040    0.000078853   -0.000068505
      6        1           0.000404040   -0.000078853    0.000068505
      7        1           0.000409475    0.000074154   -0.000000806
      8        1           0.000405511   -0.000071902   -0.000093918
 -------------------------------------------------------------------
 Cartesian Forces:  Max     0.003436643 RMS     0.001015519

 GradGradGradGradGradGradGradGradGradGradGradGradGradGradGradGradGradGrad
 Berny optimization.
 Using GEDIIS/GDIIS optimizer.
 FormGI is forming the generalized inverse of G from B-inverse, IUseBI=4.
 Internal  Forces:  Max     0.002220822 RMS     0.000489569
 Search for a local minimum.
 Step number   2 out of a maximum of   38
 All quantities printed in internal units (Hartrees-Bohrs-Radians)
 Mixed Optimization -- En-DIIS/RFO-DIIS
 Update second derivatives using D2CorX and points    1    2
 DE= -1.82D-04 DEPred=-1.46D-04 R= 1.25D+00
 TightC=F SS=  1.41D+00  RLast= 4.13D-02 DXNew= 5.0454D-01 1.2403D-01
 Trust test= 1.25D+00 RLast= 4.13D-02 DXMaxT set to 3.00D-01
 ITU=  1  0
 Use linear search instead of GDIIS.
     Eigenvalues ---    0.00280   0.05456   0.05456   0.05457   0.05457
     Eigenvalues ---    0.12593   0.16000   0.16000   0.16000   0.16000
     Eigenvalues ---    0.16000   0.27608   0.34359   0.34549   0.34549
     Eigenvalues ---    0.34549   0.34550   0.34551
 RFO step:  Lambda=-1.55004000D-05 EMin= 2.79920382D-03
 Quartic linear search produced a step of  0.33838.
 Iteration  1 RMS(Cart)=  0.00177955 RMS(Int)=  0.00001811
 Iteration  2 RMS(Cart)=  0.00000692 RMS(Int)=  0.00001724
 Iteration  3 RMS(Cart)=  0.00000000 RMS(Int)=  0.00001724
 ClnCor:  largest displacement from symmetrization is 9.47D-09 for atom     8.
 Variable       Old X    -DE/DX   Delta X   Delta X   Delta X     New X
                                 (Linear)    (Quad)   (Total)
    R1        2.89382  -0.00222  -0.00345  -0.00742  -0.01087   2.88295
    R2        2.06610   0.00024   0.00067   0.00038   0.00105   2.06715
    R3        2.06616   0.00023   0.00069   0.00032   0.00101   2.06717
    R4        2.06620   0.00023   0.00070   0.00030   0.00101   2.06720
    R5        2.06620   0.00023   0.00070   0.00030   0.00101   2.06720
    R6        2.06616   0.00023   0.00069   0.00032   0.00101   2.06717
    R7        2.06610   0.00024   0.00067   0.00038   0.00105   2.06715
    A1        1.93816   0.00034   0.00381  -0.00040   0.00338   1.94154
    A2        1.93805   0.00034   0.00377  -0.00028   0.00346   1.94151
    A3        1.93818   0.00034   0.00381  -0.00034   0.00345   1.94162
    A4        1.88227  -0.00036  -0.00399   0.00039  -0.00363   1.87864
    A5        1.88216  -0.00036  -0.00403   0.00031  -0.00375   1.87841
    A6        1.88262  -0.00035  -0.00388   0.00038  -0.00352   1.87910
    A7        1.93818   0.00034   0.00381  -0.00034   0.00345   1.94162
    A8        1.93805   0.00034   0.00377  -0.00028   0.00346   1.94151
    A9        1.93816   0.00034   0.00381  -0.00040   0.00338   1.94154
   A10        1.88262  -0.00035  -0.00388   0.00038  -0.00352   1.87910
   A11        1.88216  -0.00036  -0.00403   0.00031  -0.00375   1.87841
   A12        1.88227  -0.00036  -0.00399   0.00039  -0.00363   1.87864
    D1        1.04739   0.00001   0.00006   0.00010   0.00017   1.04756
    D2       -1.04733   0.00000  -0.00004   0.00004  -0.00001  -1.04734
    D3        3.14159   0.00000   0.00000   0.00000   0.00000   3.14159
    D4       -1.04688   0.00001   0.00011   0.00007   0.00018  -1.04670
    D5       -3.14159   0.00000   0.00000   0.00000   0.00000   3.14159
    D6        1.04733   0.00000   0.00004  -0.00004   0.00001   1.04734
    D7        3.14159   0.00000   0.00000   0.00000   0.00000   3.14159
    D8        1.04688  -0.00001  -0.00011  -0.00007  -0.00018   1.04670
    D9       -1.04739  -0.00001  -0.00006  -0.00010  -0.00017  -1.04756
         Item               Value     Threshold  Converged?
 Maximum Force            0.002221     0.000450     NO 
 RMS     Force            0.000490     0.000300     NO 
 Maximum Displacement     0.005425     0.001800     NO 
 RMS     Displacement     0.001780     0.001200     NO 
 Predicted change in Energy=-2.003510D-05
 GradGradGradGradGradGradGradGradGradGradGradGradGradGradGradGradGradGrad

                          Input orientation:                          
 ---------------------------------------------------------------------
 Center     Atomic      Atomic             Coordinates (Angstroms)
 Number     Number       Type             X           Y           Z
 ---------------------------------------------------------------------
      1          6           0       -6.382133    0.650701   -0.000063
      2          6           0       -4.858577    0.571929    0.000063
      3          1           0       -6.760772    1.004606    0.963254
      4          1           0       -6.829589   -0.328775   -0.192485
      5          1           0       -6.743489    1.337893   -0.770676
      6          1           0       -4.497221   -0.115263    0.770676
      7          1           0       -4.411121    1.551405    0.192485
      8          1           0       -4.479938    0.218024   -0.963254
 ---------------------------------------------------------------------
                    Distance matrix (angstroms):
                    1          2          3          4          5
     1  C    0.000000
     2  C    1.525590   0.000000
     3  H    1.093891   2.175612   0.000000
     4  H    1.093899   2.175599   1.765892   0.000000
     5  H    1.093917   2.175691   1.765756   1.766211   0.000000
     6  H    2.175691   1.093917   2.532756   2.532430   3.087579
     7  H    2.175599   1.093899   2.532574   3.087437   2.532430
     8  H    2.175612   1.093891   3.087450   2.532574   2.532756
                    6          7          8
     6  H    0.000000
     7  H    1.766211   0.000000
     8  H    1.765756   1.765892   0.000000
 Stoichiometry    C2H6
 Framework group  CI[X(C2H6)]
 Deg. of freedom     9
 Full point group                 CI      NOp   2
 Largest Abelian subgroup         CI      NOp   2
 Largest concise Abelian subgroup CI      NOp   2
                         Standard orientation:                         
 ---------------------------------------------------------------------
 Center     Atomic      Atomic             Coordinates (Angstroms)
 Number     Number       Type             X           Y           Z
 ---------------------------------------------------------------------
      1          6           0       -0.761778    0.039386   -0.000063
      2          6           0        0.761778   -0.039386    0.000063
      3          1           0       -1.140417    0.393291    0.963254
      4          1           0       -1.209234   -0.940090   -0.192485
      5          1           0       -1.123134    0.726578   -0.770676
      6          1           0        1.123134   -0.726578    0.770676
      7          1           0        1.209234    0.940090    0.192485
      8          1           0        1.140417   -0.393291   -0.963254
 ---------------------------------------------------------------------
 Rotational constants (GHZ):     80.3977412     20.0297883     20.0282643
 Standard basis: 6-31G(d) (6D, 7F)
 There are    21 symmetry adapted cartesian basis functions of AG  symmetry.
 There are    21 symmetry adapted cartesian basis functions of AU  symmetry.
 There are    21 symmetry adapted basis functions of AG  symmetry.
 There are    21 symmetry adapted basis functions of AU  symmetry.
    42 basis functions,    80 primitive gaussians,    42 cartesian basis functions
     9 alpha electrons        9 beta electrons
       nuclear repulsion energy        42.2243203013 Hartrees.
 NAtoms=    8 NActive=    8 NUniq=    4 SFac= 4.00D+00 NAtFMM=   60 NAOKFM=F Big=F
 Integral buffers will be    131072 words long.
 Raffenetti 2 integral format.
 Two-electron integral symmetry is turned on.
 One-electron integrals computed using PRISM.
 NBasis=    42 RedAO= T EigKep=  5.90D-03  NBF=    21    21
 NBsUse=    42 1.00D-06 EigRej= -1.00D+00 NBFU=    21    21
 Initial guess from the checkpoint file:  "/scr/Gau-29422.chk"
 B after Tr=     0.000000    0.000000    0.000000
         Rot=    1.000000    0.000000    0.000007   -0.000005 Ang=   0.00 deg.
 Initial guess orbital symmetries:
       Occupied  (AG) (AU) (AG) (AU) (AU) (AU) (AG) (AG) (AG)
       Virtual   (AG) (AG) (AG) (AG) (AG) (AG) (AG) (AG) (AG) (AG)
                 (AG) (AG) (AG) (AG) (AG) (AG) (AU) (AU) (AU) (AU)
                 (AU) (AU) (AU) (AU) (AU) (AU) (AU) (AU) (AU) (AU)
                 (AU) (AU) (AU)
 Keep R1 ints in memory in symmetry-blocked form, NReq=1296466.
 Requested convergence on RMS density matrix=1.00D-08 within 128 cycles.
 Requested convergence on MAX density matrix=1.00D-06.
 Requested convergence on             energy=1.00D-06.
 No special actions if energy rises.
 SCF Done:  E(RM062X) =  -79.7718425678     A.U. after    7 cycles
            NFock=  7  Conv=0.25D-08     -V/T= 2.0094
 Calling FoFJK, ICntrl=      2127 FMM=F ISym2X=1 I1Cent= 0 IOpClX= 0 NMat=1 NMatS=1 NMatT=0.
 ***** Axes restored to original set *****
 -------------------------------------------------------------------
 Center     Atomic                   Forces (Hartrees/Bohr)
 Number     Number              X              Y              Z
 -------------------------------------------------------------------
      1        6          -0.000321162    0.000016005    0.000001307
      2        6           0.000321162   -0.000016005   -0.000001307
      3        1          -0.000014927    0.000008674   -0.000011763
      4        1          -0.000014550    0.000013651    0.000015716
      5        1          -0.000018388   -0.000017755    0.000003834
      6        1           0.000018388    0.000017755   -0.000003834
      7        1           0.000014550   -0.000013651   -0.000015716
      8        1           0.000014927   -0.000008674    0.000011763
 -------------------------------------------------------------------
 Cartesian Forces:  Max     0.000321162 RMS     0.000093609

 GradGradGradGradGradGradGradGradGradGradGradGradGradGradGradGradGradGrad
 Berny optimization.
 Using GEDIIS/GDIIS optimizer.
 FormGI is forming the generalized inverse of G from B-inverse, IUseBI=4.
 Internal  Forces:  Max     0.000369597 RMS     0.000071098
 Search for a local minimum.
 Step number   3 out of a maximum of   38
 All quantities printed in internal units (Hartrees-Bohrs-Radians)
 Mixed Optimization -- En-DIIS/RFO-DIIS
 Swapping is turned off.
 Update second derivatives using D2CorX and points    1    2    3
 DE= -1.86D-05 DEPred=-2.00D-05 R= 9.29D-01
 TightC=F SS=  1.41D+00  RLast= 1.66D-02 DXNew= 5.0454D-01 4.9682D-02
 Trust test= 9.29D-01 RLast= 1.66D-02 DXMaxT set to 3.00D-01
 ITU=  1  1  0
     Eigenvalues ---    0.00280   0.05420   0.05420   0.05422   0.05422
     Eigenvalues ---    0.12155   0.16000   0.16000   0.16000   0.16000
     Eigenvalues ---    0.16000   0.29980   0.34303   0.34549   0.34549
     Eigenvalues ---    0.34550   0.34550   0.34551
 En-DIIS/RFO-DIIS IScMMF=        0 using points:     3    2
 RFO step:  Lambda=-2.59171372D-07.
 DidBck=F Rises=F RFO-DIIS coefs:    0.92596    0.07404
 Iteration  1 RMS(Cart)=  0.00035440 RMS(Int)=  0.00000027
 Iteration  2 RMS(Cart)=  0.00000000 RMS(Int)=  0.00000027
 ClnCor:  largest displacement from symmetrization is 9.68D-10 for atom     7.
 Variable       Old X    -DE/DX   Delta X   Delta X   Delta X     New X
                                 (Linear)    (Quad)   (Total)
    R1        2.88295   0.00037   0.00080   0.00046   0.00127   2.88421
    R2        2.06715   0.00000  -0.00008   0.00005  -0.00002   2.06713
    R3        2.06717  -0.00001  -0.00007   0.00004  -0.00004   2.06713
    R4        2.06720  -0.00001  -0.00007   0.00004  -0.00003   2.06717
    R5        2.06720  -0.00001  -0.00007   0.00004  -0.00003   2.06717
    R6        2.06717  -0.00001  -0.00007   0.00004  -0.00004   2.06713
    R7        2.06715   0.00000  -0.00008   0.00005  -0.00002   2.06713
    A1        1.94154   0.00002  -0.00025   0.00028   0.00003   1.94157
    A2        1.94151   0.00002  -0.00026   0.00027   0.00002   1.94153
    A3        1.94162   0.00002  -0.00026   0.00028   0.00002   1.94165
    A4        1.87864  -0.00002   0.00027  -0.00029  -0.00002   1.87862
    A5        1.87841  -0.00002   0.00028  -0.00030  -0.00002   1.87839
    A6        1.87910  -0.00002   0.00026  -0.00030  -0.00004   1.87906
    A7        1.94162   0.00002  -0.00026   0.00028   0.00002   1.94165
    A8        1.94151   0.00002  -0.00026   0.00027   0.00002   1.94153
    A9        1.94154   0.00002  -0.00025   0.00028   0.00003   1.94157
   A10        1.87910  -0.00002   0.00026  -0.00030  -0.00004   1.87906
   A11        1.87841  -0.00002   0.00028  -0.00030  -0.00002   1.87839
   A12        1.87864  -0.00002   0.00027  -0.00029  -0.00002   1.87862
    D1        1.04756   0.00000  -0.00001   0.00000  -0.00001   1.04755
    D2       -1.04734   0.00000   0.00000   0.00001   0.00001  -1.04733
    D3        3.14159   0.00000   0.00000   0.00000   0.00000   3.14159
    D4       -1.04670   0.00000  -0.00001  -0.00001  -0.00002  -1.04672
    D5        3.14159   0.00000   0.00000   0.00000   0.00000   3.14159
    D6        1.04734   0.00000   0.00000  -0.00001  -0.00001   1.04733
    D7        3.14159   0.00000   0.00000   0.00000   0.00000   3.14159
    D8        1.04670   0.00000   0.00001   0.00001   0.00002   1.04672
    D9       -1.04756   0.00000   0.00001   0.00000   0.00001  -1.04755
         Item               Value     Threshold  Converged?
 Maximum Force            0.000370     0.000450     YES
 RMS     Force            0.000071     0.000300     YES
 Maximum Displacement     0.000677     0.001800     YES
 RMS     Displacement     0.000354     0.001200     YES
 Predicted change in Energy=-2.377673D-07
 Optimization completed.
    -- Stationary point found.
                           ----------------------------
                           !   Optimized Parameters   !
                           ! (Angstroms and Degrees)  !
 --------------------------                            --------------------------
 ! Name  Definition              Value          Derivative Info.                !
 --------------------------------------------------------------------------------
 ! R1    R(1,2)                  1.5256         -DE/DX =    0.0004              !
 ! R2    R(1,3)                  1.0939         -DE/DX =    0.0                 !
 ! R3    R(1,4)                  1.0939         -DE/DX =    0.0                 !
 ! R4    R(1,5)                  1.0939         -DE/DX =    0.0                 !
 ! R5    R(2,6)                  1.0939         -DE/DX =    0.0                 !
 ! R6    R(2,7)                  1.0939         -DE/DX =    0.0                 !
 ! R7    R(2,8)                  1.0939         -DE/DX =    0.0                 !
 ! A1    A(2,1,3)              111.2421         -DE/DX =    0.0                 !
 ! A2    A(2,1,4)              111.2405         -DE/DX =    0.0                 !
 ! A3    A(2,1,5)              111.2468         -DE/DX =    0.0                 !
 ! A4    A(3,1,4)              107.6383         -DE/DX =    0.0                 !
 ! A5    A(3,1,5)              107.6249         -DE/DX =    0.0                 !
 ! A6    A(4,1,5)              107.6647         -DE/DX =    0.0                 !
 ! A7    A(1,2,6)              111.2468         -DE/DX =    0.0                 !
 ! A8    A(1,2,7)              111.2405         -DE/DX =    0.0                 !
 ! A9    A(1,2,8)              111.2421         -DE/DX =    0.0                 !
 ! A10   A(6,2,7)              107.6647         -DE/DX =    0.0                 !
 ! A11   A(6,2,8)              107.6249         -DE/DX =    0.0                 !
 ! A12   A(7,2,8)              107.6383         -DE/DX =    0.0                 !
 ! D1    D(3,1,2,6)             60.0207         -DE/DX =    0.0                 !
 ! D2    D(3,1,2,7)            -60.0079         -DE/DX =    0.0                 !
 ! D3    D(3,1,2,8)            180.0            -DE/DX =    0.0                 !
 ! D4    D(4,1,2,6)            -59.9714         -DE/DX =    0.0                 !
 ! D5    D(4,1,2,7)            180.0            -DE/DX =    0.0                 !
 ! D6    D(4,1,2,8)             60.0079         -DE/DX =    0.0                 !
 ! D7    D(5,1,2,6)            180.0            -DE/DX =    0.0                 !
 ! D8    D(5,1,2,7)             59.9714         -DE/DX =    0.0                 !
 ! D9    D(5,1,2,8)            -60.0207         -DE/DX =    0.0                 !
 --------------------------------------------------------------------------------
 GradGradGradGradGradGradGradGradGradGradGradGradGradGradGradGradGradGrad

                          Input orientation:                          
 ---------------------------------------------------------------------
 Center     Atomic      Atomic             Coordinates (Angstroms)
 Number     Number       Type             X           Y           Z
 ---------------------------------------------------------------------
      1          6           0       -6.382133    0.650701   -0.000063
      2          6           0       -4.858577    0.571929    0.000063
      3          1           0       -6.760772    1.004606    0.963254
      4          1           0       -6.829589   -0.328775   -0.192485
      5          1           0       -6.743489    1.337893   -0.770676
      6          1           0       -4.497221   -0.115263    0.770676
      7          1           0       -4.411121    1.551405    0.192485
      8          1           0       -4.479938    0.218024   -0.963254
 ---------------------------------------------------------------------
                    Distance matrix (angstroms):
                    1          2          3          4          5
     1  C    0.000000
     2  C    1.525590   0.000000
     3  H    1.093891   2.175612   0.000000
     4  H    1.093899   2.175599   1.765892   0.000000
     5  H    1.093917   2.175691   1.765756   1.766211   0.000000
     6  H    2.175691   1.093917   2.532756   2.532430   3.087579
     7  H    2.175599   1.093899   2.532574   3.087437   2.532430
     8  H    2.175612   1.093891   3.087450   2.532574   2.532756
                    6          7          8
     6  H    0.000000
     7  H    1.766211   0.000000
     8  H    1.765756   1.765892   0.000000
 Stoichiometry    C2H6
 Framework group  CI[X(C2H6)]
 Deg. of freedom     9
 Full point group                 CI      NOp   2
 Largest Abelian subgroup         CI      NOp   2
 Largest concise Abelian subgroup CI      NOp   2
                         Standard orientation:                         
 ---------------------------------------------------------------------
 Center     Atomic      Atomic             Coordinates (Angstroms)
 Number     Number       Type             X           Y           Z
 ---------------------------------------------------------------------
      1          6           0       -0.761778    0.039386   -0.000063
      2          6           0        0.761778   -0.039386    0.000063
      3          1           0       -1.140417    0.393291    0.963254
      4          1           0       -1.209234   -0.940090   -0.192485
      5          1           0       -1.123134    0.726578   -0.770676
      6          1           0        1.123134   -0.726578    0.770676
      7          1           0        1.209234    0.940090    0.192485
      8          1           0        1.140417   -0.393291   -0.963254
 ---------------------------------------------------------------------
 Rotational constants (GHZ):     80.3977412     20.0297883     20.0282643

 **********************************************************************

            Population analysis using the SCF density.

 **********************************************************************

 Orbital symmetries:
       Occupied  (AG) (AU) (AG) (AU) (AU) (AU) (AG) (AG) (AG)
       Virtual   (AG) (AU) (AU) (AU) (AG) (AG) (AU) (AG) (AU) (AU)
                 (AG) (AG) (AU) (AU) (AU) (AG) (AG) (AG) (AU) (AG)
                 (AU) (AU) (AU) (AG) (AG) (AG) (AU) (AU) (AG) (AG)
                 (AU) (AG) (AU)
 The electronic state is 1-AG.
 Alpha  occ. eigenvalues --  -10.52944 -10.52908  -0.84507  -0.69672  -0.49912
 Alpha  occ. eigenvalues --   -0.49903  -0.42361  -0.39996  -0.39986
 Alpha virt. eigenvalues --    0.15072   0.20646   0.21252   0.21253   0.23679
 Alpha virt. eigenvalues --    0.23682   0.28850   0.56034   0.58890   0.58896
 Alpha virt. eigenvalues --    0.68607   0.68618   0.73526   0.95093   0.95098
 Alpha virt. eigenvalues --    0.98425   0.98941   0.98954   1.05597   1.10580
 Alpha virt. eigenvalues --    1.47382   1.58233   1.58244   1.98416   2.03578
 Alpha virt. eigenvalues --    2.03600   2.33267   2.33304   2.38234   2.38243
 Alpha virt. eigenvalues --    2.62136   4.18393   4.40044
          Condensed to atoms (all electrons):
               1          2          3          4          5          6
     1  C    5.064376   0.356245   0.388012   0.388011   0.388023  -0.035299
     2  C    0.356245   5.064376  -0.035306  -0.035313  -0.035299   0.388023
     3  H    0.388012  -0.035306   0.549969  -0.029743  -0.029775  -0.003545
     4  H    0.388011  -0.035313  -0.029743   0.549888  -0.029705  -0.003537
     5  H    0.388023  -0.035299  -0.029775  -0.029705   0.549936   0.004340
     6  H   -0.035299   0.388023  -0.003545  -0.003537   0.004340   0.549936
     7  H   -0.035313   0.388011  -0.003542   0.004341  -0.003537  -0.029705
     8  H   -0.035306   0.388012   0.004343  -0.003542  -0.003545  -0.029775
               7          8
     1  C   -0.035313  -0.035306
     2  C    0.388011   0.388012
     3  H   -0.003542   0.004343
     4  H    0.004341  -0.003542
     5  H   -0.003537  -0.003545
     6  H   -0.029705  -0.029775
     7  H    0.549888  -0.029743
     8  H   -0.029743   0.549969
 Mulliken charges:
               1
     1  C   -0.478749
     2  C   -0.478749
     3  H    0.159587
     4  H    0.159600
     5  H    0.159562
     6  H    0.159562
     7  H    0.159600
     8  H    0.159587
 Sum of Mulliken charges =   0.00000
 Mulliken charges with hydrogens summed into heavy atoms:
               1
     1  C    0.000000
     2  C    0.000000
 Electronic spatial extent (au):  <R**2>=            109.2810
 Charge=              0.0000 electrons
 Dipole moment (field-independent basis, Debye):
    X=              0.0000    Y=              0.0000    Z=              0.0000  Tot=              0.0000
 Quadrupole moment (field-independent basis, Debye-Ang):
   XX=            -15.2809   YY=            -14.7432   ZZ=            -14.7448
   XY=              0.0277   XZ=             -0.0006   YZ=             -0.0003
 Traceless Quadrupole moment (field-independent basis, Debye-Ang):
   XX=             -0.3579   YY=              0.1798   ZZ=              0.1781
   XY=              0.0277   XZ=             -0.0006   YZ=             -0.0003
 Octapole moment (field-independent basis, Debye-Ang**2):
  XXX=              0.0000  YYY=              0.0000  ZZZ=              0.0000  XYY=              0.0000
  XXY=              0.0000  XXZ=              0.0000  XZZ=              0.0000  YZZ=              0.0000
  YYZ=              0.0000  XYZ=              0.0000
 Hexadecapole moment (field-independent basis, Debye-Ang**3):
 XXXX=            -92.3542 YYYY=            -28.9234 ZZZZ=            -28.5417 XXXY=              1.8421
 XXXZ=              0.0033 YYYX=              2.5702 YYYZ=             -0.1103 ZZZX=             -0.7152
 ZZZY=              0.0376 XXYY=            -18.9016 XXZZ=            -19.0896 YYZZ=             -9.4242
 XXYZ=              0.0733 YYXZ=              0.7080 ZZXY=             -0.6194
 N-N= 4.222432030131D+01 E-N=-2.682262687627D+02  KE= 7.902823262853D+01
 Symmetry AG   KE= 4.102924223505D+01
 Symmetry AU   KE= 3.799899039349D+01
 1\1\GINC-N0288\FOpt\RM062X\6-31G(d)\C2H6\GDAVIDS3\21-Feb-2017\0\\#n M0
 62X/6-31G(d) Opt\\Ethane M062X 6-31Gd\\0,1\C,-6.3821326878,0.650700626
 8,-0.0000634485\C,-4.8585773122,0.5719293732,0.0000634485\H,-6.7607716
 639,1.0046062768,0.9632542228\H,-6.8295886952,-0.3287753234,-0.1924850
 665\H,-6.7434885927,1.3378926843,-0.7706759987\H,-4.4972214073,-0.1152
 626843,0.7706759987\H,-4.4111213048,1.5514053234,0.1924850665\H,-4.479
 9383361,0.2180237232,-0.9632542228\\Version=ES64L-G09RevE.01\State=1-A
 G\HF=-79.7718426\RMSD=2.503e-09\RMSF=9.361e-05\Dipole=0.,0.,0.\Quadrup
 ole=-0.266094,0.1336626,0.1324314,0.0205888,-0.0004309,-0.0002559\PG=C
 I [X(C2H6)]\\@


            ARSENIC

 FOR SMELTER FUMES HAVE I BEEN NAMED,
    I AM AN EVIL POISONOUS SMOKE...
 BUT WHEN FROM POISON I AM FREED,
    THROUGH ART AND SLEIGHT OF HAND,
 THEN CAN I CURE BOTH MAN AND BEAST,
    FROM DIRE DISEASE OFTTIMES DIRECT THEM;
 BUT PREPARE ME CORRECTLY, AND TAKE GREAT CARE
    THAT YOU FAITHFULLY KEEP WATCHFUL GUARD OVER ME;
 FOR ELSE I AM POISON, AND POISON REMAIN,
    THAT PIERCES THE HEART OF MANY A ONE.

 ATTRIBUTED TO THE PROBABLY MYTHICAL 15TH
 CENTURY MONK, BASILIUS VALENTINUS
 Job cpu time:       0 days  0 hours  0 minutes 38.0 seconds.
 File lengths (MBytes):  RWF=      5 Int=      0 D2E=      0 Chk=      1 Scr=      1
 Normal termination of Gaussian 09 at Tue Feb 21 17:23:46 2017.
