 Entering Gaussian System, Link 0=g09
 Input=Ethane_M062X_6-31Gdp.com
 Output=Ethane_M062X_6-31Gdp.log
 Initial command:
 /sw/contrib/gaussian/g09/E01/g09/l1.exe "/scr/Gau-2060.inp" -scrdir="/scr/"
 Entering Link 1 = /sw/contrib/gaussian/g09/E01/g09/l1.exe PID=      2061.
  
 Copyright (c) 1988,1990,1992,1993,1995,1998,2003,2009,2015,
            Gaussian, Inc.  All Rights Reserved.
  
 This is part of the Gaussian(R) 09 program.  It is based on
 the Gaussian(R) 03 system (copyright 2003, Gaussian, Inc.),
 the Gaussian(R) 98 system (copyright 1998, Gaussian, Inc.),
 the Gaussian(R) 94 system (copyright 1995, Gaussian, Inc.),
 the Gaussian 92(TM) system (copyright 1992, Gaussian, Inc.),
 the Gaussian 90(TM) system (copyright 1990, Gaussian, Inc.),
 the Gaussian 88(TM) system (copyright 1988, Gaussian, Inc.),
 the Gaussian 86(TM) system (copyright 1986, Carnegie Mellon
 University), and the Gaussian 82(TM) system (copyright 1983,
 Carnegie Mellon University). Gaussian is a federally registered
 trademark of Gaussian, Inc.
  
 This software contains proprietary and confidential information,
 including trade secrets, belonging to Gaussian, Inc.
  
 This software is provided under written license and may be
 used, copied, transmitted, or stored only in accord with that
 written license.
  
 The following legend is applicable only to US Government
 contracts under FAR:
  
                    RESTRICTED RIGHTS LEGEND
  
 Use, reproduction and disclosure by the US Government is
 subject to restrictions as set forth in subparagraphs (a)
 and (c) of the Commercial Computer Software - Restricted
 Rights clause in FAR 52.227-19.
  
 Gaussian, Inc.
 340 Quinnipiac St., Bldg. 40, Wallingford CT 06492
  
  
 ---------------------------------------------------------------
 Warning -- This program may not be used in any manner that
 competes with the business of Gaussian, Inc. or will provide
 assistance to any competitor of Gaussian, Inc.  The licensee
 of this program is prohibited from giving any competitor of
 Gaussian, Inc. access to this program.  By using this program,
 the user acknowledges that Gaussian, Inc. is engaged in the
 business of creating and licensing software in the field of
 computational chemistry and represents and warrants to the
 licensee that it is not a competitor of Gaussian, Inc. and that
 it will not use this program in any manner prohibited above.
 ---------------------------------------------------------------
  

 Cite this work as:
 Gaussian 09, Revision E.01,
 M. J. Frisch, G. W. Trucks, H. B. Schlegel, G. E. Scuseria, 
 M. A. Robb, J. R. Cheeseman, G. Scalmani, V. Barone, B. Mennucci, 
 G. A. Petersson, H. Nakatsuji, M. Caricato, X. Li, H. P. Hratchian, 
 A. F. Izmaylov, J. Bloino, G. Zheng, J. L. Sonnenberg, M. Hada, 
 M. Ehara, K. Toyota, R. Fukuda, J. Hasegawa, M. Ishida, T. Nakajima, 
 Y. Honda, O. Kitao, H. Nakai, T. Vreven, J. A. Montgomery, Jr., 
 J. E. Peralta, F. Ogliaro, M. Bearpark, J. J. Heyd, E. Brothers, 
 K. N. Kudin, V. N. Staroverov, T. Keith, R. Kobayashi, J. Normand, 
 K. Raghavachari, A. Rendell, J. C. Burant, S. S. Iyengar, J. Tomasi, 
 M. Cossi, N. Rega, J. M. Millam, M. Klene, J. E. Knox, J. B. Cross, 
 V. Bakken, C. Adamo, J. Jaramillo, R. Gomperts, R. E. Stratmann, 
 O. Yazyev, A. J. Austin, R. Cammi, C. Pomelli, J. W. Ochterski, 
 R. L. Martin, K. Morokuma, V. G. Zakrzewski, G. A. Voth, 
 P. Salvador, J. J. Dannenberg, S. Dapprich, A. D. Daniels, 
 O. Farkas, J. B. Foresman, J. V. Ortiz, J. Cioslowski, 
 and D. J. Fox, Gaussian, Inc., Wallingford CT, 2013.
 
 ******************************************
 Gaussian 09:  ES64L-G09RevE.01 30-Nov-2015
                21-Feb-2017 
 ******************************************
 %NProcShared=8
 Will use up to    8 processors via shared memory.
 -----------------------
 #n M062X/6-31G(d,p) Opt
 -----------------------
 1/14=-1,18=20,19=15,26=3,38=1/1,3;
 2/9=110,12=2,17=6,18=5,40=1/2;
 3/5=1,6=6,7=101,11=2,16=1,25=1,30=1,71=1,74=-55/1,2,3;
 4//1;
 5/5=2,38=5/2;
 6/7=2,8=2,9=2,10=2,28=1/1;
 7//1,2,3,16;
 1/14=-1,18=20,19=15,26=3/3(2);
 2/9=110/2;
 99//99;
 2/9=110/2;
 3/5=1,6=6,7=101,11=2,16=1,25=1,30=1,71=1,74=-55/1,2,3;
 4/5=5,16=3,69=1/1;
 5/5=2,38=5/2;
 7//1,2,3,16;
 1/14=-1,18=20,19=15,26=3/3(-5);
 2/9=110/2;
 6/7=2,8=2,9=2,10=2,19=2,28=1/1;
 99/9=1/99;
 --------------------
 Ethane M062X 6-31Gdp
 --------------------
 Symbolic Z-matrix:
 Charge =  0 Multiplicity = 1
 C                    -6.3877    0.65101   0. 
 C                    -4.85301   0.57162   0. 
 H                    -6.75069   1.00542   0.96733 
 H                    -6.81994  -0.3333   -0.19339 
 H                    -6.73338   1.33993  -0.77394 
 H                    -4.50733  -0.1173    0.77394 
 H                    -4.42077   1.55593   0.19339 
 H                    -4.49002   0.21721  -0.96733 
 

 GradGradGradGradGradGradGradGradGradGradGradGradGradGradGradGradGradGrad
 Berny optimization.
 Initialization pass.
                           ----------------------------
                           !    Initial Parameters    !
                           ! (Angstroms and Degrees)  !
 --------------------------                            --------------------------
 ! Name  Definition              Value          Derivative Info.                !
 --------------------------------------------------------------------------------
 ! R1    R(1,2)                  1.5367         estimate D2E/DX2                !
 ! R2    R(1,3)                  1.0923         estimate D2E/DX2                !
 ! R3    R(1,4)                  1.0923         estimate D2E/DX2                !
 ! R4    R(1,5)                  1.0923         estimate D2E/DX2                !
 ! R5    R(2,6)                  1.0923         estimate D2E/DX2                !
 ! R6    R(2,7)                  1.0923         estimate D2E/DX2                !
 ! R7    R(2,8)                  1.0923         estimate D2E/DX2                !
 ! A1    A(2,1,3)              110.4041         estimate D2E/DX2                !
 ! A2    A(2,1,4)              110.4039         estimate D2E/DX2                !
 ! A3    A(2,1,5)              110.4038         estimate D2E/DX2                !
 ! A4    A(3,1,4)              108.5227         estimate D2E/DX2                !
 ! A5    A(3,1,5)              108.5224         estimate D2E/DX2                !
 ! A6    A(4,1,5)              108.5227         estimate D2E/DX2                !
 ! A7    A(1,2,6)              110.4038         estimate D2E/DX2                !
 ! A8    A(1,2,7)              110.4039         estimate D2E/DX2                !
 ! A9    A(1,2,8)              110.4041         estimate D2E/DX2                !
 ! A10   A(6,2,7)              108.5227         estimate D2E/DX2                !
 ! A11   A(6,2,8)              108.5224         estimate D2E/DX2                !
 ! A12   A(7,2,8)              108.5227         estimate D2E/DX2                !
 ! D1    D(3,1,2,6)             60.0002         estimate D2E/DX2                !
 ! D2    D(3,1,2,7)            -59.9998         estimate D2E/DX2                !
 ! D3    D(3,1,2,8)            180.0            estimate D2E/DX2                !
 ! D4    D(4,1,2,6)            -60.0            estimate D2E/DX2                !
 ! D5    D(4,1,2,7)            180.0            estimate D2E/DX2                !
 ! D6    D(4,1,2,8)             59.9998         estimate D2E/DX2                !
 ! D7    D(5,1,2,6)            180.0            estimate D2E/DX2                !
 ! D8    D(5,1,2,7)             60.0            estimate D2E/DX2                !
 ! D9    D(5,1,2,8)            -60.0002         estimate D2E/DX2                !
 --------------------------------------------------------------------------------
 Trust Radius=3.00D-01 FncErr=1.00D-07 GrdErr=1.00D-06
 Number of steps in this run=     38 maximum allowed number of steps=    100.
 GradGradGradGradGradGradGradGradGradGradGradGradGradGradGradGradGradGrad

                          Input orientation:                          
 ---------------------------------------------------------------------
 Center     Atomic      Atomic             Coordinates (Angstroms)
 Number     Number       Type             X           Y           Z
 ---------------------------------------------------------------------
      1          6           0       -6.387700    0.651010    0.000000
      2          6           0       -4.853010    0.571620    0.000000
      3          1           0       -6.750690    1.005420    0.967330
      4          1           0       -6.819940   -0.333300   -0.193390
      5          1           0       -6.733380    1.339930   -0.773940
      6          1           0       -4.507330   -0.117300    0.773940
      7          1           0       -4.420770    1.555930    0.193390
      8          1           0       -4.490020    0.217210   -0.967330
 ---------------------------------------------------------------------
                    Distance matrix (angstroms):
                    1          2          3          4          5
     1  C    0.000000
     2  C    1.536742   0.000000
     3  H    1.092289   2.173729   0.000000
     4  H    1.092290   2.173728   1.773200   0.000000
     5  H    1.092286   2.173724   1.773194   1.773198   0.000000
     6  H    2.173724   1.092286   2.516061   2.516058   3.078108
     7  H    2.173728   1.092290   2.516063   3.078117   2.516058
     8  H    2.173729   1.092289   3.078118   2.516063   2.516061
                    6          7          8
     6  H    0.000000
     7  H    1.773198   0.000000
     8  H    1.773194   1.773200   0.000000
 This structure is nearly, but not quite of a higher symmetry.
 Consider Symm=Loose if the higher symmetry is desired.
 Stoichiometry    C2H6
 Framework group  CI[X(C2H6)]
 Deg. of freedom     9
 Full point group                 CI      NOp   2
 Largest Abelian subgroup         CI      NOp   2
 Largest concise Abelian subgroup CI      NOp   2
                         Standard orientation:                         
 ---------------------------------------------------------------------
 Center     Atomic      Atomic             Coordinates (Angstroms)
 Number     Number       Type             X           Y           Z
 ---------------------------------------------------------------------
      1          6           0       -0.767345    0.039695    0.000000
      2          6           0        0.767345   -0.039695    0.000000
      3          1           0       -1.130335    0.394105    0.967330
      4          1           0       -1.199585   -0.944615   -0.193390
      5          1           0       -1.113025    0.728615   -0.773940
      6          1           0        1.113025   -0.728615    0.773940
      7          1           0        1.199585    0.944615    0.193390
      8          1           0        1.130335   -0.394105   -0.967330
 ---------------------------------------------------------------------
 Rotational constants (GHZ):     79.7421566     19.9565168     19.9564985
 Standard basis: 6-31G(d,p) (6D, 7F)
 There are    30 symmetry adapted cartesian basis functions of AG  symmetry.
 There are    30 symmetry adapted cartesian basis functions of AU  symmetry.
 There are    30 symmetry adapted basis functions of AG  symmetry.
 There are    30 symmetry adapted basis functions of AU  symmetry.
    60 basis functions,    98 primitive gaussians,    60 cartesian basis functions
     9 alpha electrons        9 beta electrons
       nuclear repulsion energy        42.1695770054 Hartrees.
 NAtoms=    8 NActive=    8 NUniq=    4 SFac= 4.00D+00 NAtFMM=   60 NAOKFM=F Big=F
 Integral buffers will be    131072 words long.
 Raffenetti 2 integral format.
 Two-electron integral symmetry is turned on.
 One-electron integrals computed using PRISM.
 NBasis=    60 RedAO= T EigKep=  5.73D-03  NBF=    30    30
 NBsUse=    60 1.00D-06 EigRej= -1.00D+00 NBFU=    30    30
 ExpMin= 1.61D-01 ExpMax= 3.05D+03 ExpMxC= 4.57D+02 IAcc=1 IRadAn=         1 AccDes= 0.00D+00
 Harris functional with IExCor= 1009 and IRadAn=       1 diagonalized for initial guess.
 HarFok:  IExCor= 1009 AccDes= 0.00D+00 IRadAn=         1 IDoV= 1 UseB2=F ITyADJ=14
 ICtDFT=  3500011 ScaDFX=  1.000000  1.000000  1.000000  1.000000
 FoFCou: FMM=F IPFlag=           0 FMFlag=      100000 FMFlg1=           0
         NFxFlg=           0 DoJE=T BraDBF=F KetDBF=T FulRan=T
         wScrn=  0.000000 ICntrl=     500 IOpCl=  0 I1Cent=   200000004 NGrid=           0
         NMat0=    1 NMatS0=      1 NMatT0=    0 NMatD0=    1 NMtDS0=    0 NMtDT0=    0
 Petite list used in FoFCou.
 Initial guess orbital symmetries:
       Occupied  (AG) (AU) (AG) (AU) (AU) (AU) (AG) (AG) (AG)
       Virtual   (AG) (AU) (AU) (AU) (AG) (AG) (AU) (AG) (AU) (AU)
                 (AG) (AG) (AU) (AG) (AU) (AU) (AG) (AG) (AU) (AG)
                 (AU) (AU) (AU) (AG) (AG) (AG) (AU) (AU) (AU) (AG)
                 (AG) (AG) (AU) (AU) (AU) (AG) (AG) (AG) (AU) (AU)
                 (AU) (AG) (AG) (AG) (AU) (AG) (AG) (AU) (AU) (AG)
                 (AU)
 The electronic state of the initial guess is 1-AG.
 Keep R1 ints in memory in symmetry-blocked form, NReq=2592091.
 Requested convergence on RMS density matrix=1.00D-08 within 128 cycles.
 Requested convergence on MAX density matrix=1.00D-06.
 Requested convergence on             energy=1.00D-06.
 No special actions if energy rises.
 Integral accuracy reduced to 1.0D-05 until final iterations.
 Initial convergence to 1.0D-05 achieved.  Increase integral accuracy.
 SCF Done:  E(RM062X) =  -79.7781877672     A.U. after   11 cycles
            NFock= 11  Conv=0.99D-08     -V/T= 2.0095

 **********************************************************************

            Population analysis using the SCF density.

 **********************************************************************

 Orbital symmetries:
       Occupied  (AG) (AU) (AG) (AU) (AU) (AU) (AG) (AG) (AG)
       Virtual   (AG) (AU) (AU) (AU) (AG) (AG) (AU) (AG) (AU) (AU)
                 (AG) (AG) (AU) (AU) (AU) (AG) (AG) (AG) (AU) (AG)
                 (AU) (AU) (AU) (AG) (AG) (AG) (AU) (AG) (AU) (AU)
                 (AG) (AG) (AU) (AU) (AU) (AG) (AG) (AG) (AU) (AU)
                 (AU) (AG) (AG) (AG) (AU) (AG) (AG) (AU) (AU) (AG)
                 (AU)
 The electronic state is 1-AG.
 Alpha  occ. eigenvalues --  -10.52995 -10.52962  -0.84380  -0.69561  -0.49935
 Alpha  occ. eigenvalues --   -0.49934  -0.41721  -0.40087  -0.40086
 Alpha virt. eigenvalues --    0.14978   0.20802   0.21472   0.21473   0.23501
 Alpha virt. eigenvalues --    0.23501   0.28276   0.55894   0.58698   0.58699
 Alpha virt. eigenvalues --    0.66520   0.66520   0.72593   0.93549   0.93553
 Alpha virt. eigenvalues --    0.95433   0.96662   0.96663   1.03136   1.10518
 Alpha virt. eigenvalues --    1.39026   1.39028   1.47447   1.74596   1.74601
 Alpha virt. eigenvalues --    1.91439   2.10307   2.10370   2.12221   2.12223
 Alpha virt. eigenvalues --    2.13429   2.13431   2.31815   2.31819   2.37827
 Alpha virt. eigenvalues --    2.51675   2.51681   2.69891   2.75808   2.82227
 Alpha virt. eigenvalues --    2.82232   2.93018   2.93027   3.14292   3.24318
 Alpha virt. eigenvalues --    3.37783   3.37787   3.51582   3.51585   4.34815
 Alpha virt. eigenvalues --    4.60168
          Condensed to atoms (all electrons):
               1          2          3          4          5          6
     1  C    4.932431   0.354497   0.396282   0.396269   0.396285  -0.036165
     2  C    0.354497   4.932431  -0.036161  -0.036165  -0.036165   0.396285
     3  H    0.396282  -0.036161   0.580672  -0.029982  -0.029990  -0.003911
     4  H    0.396269  -0.036165  -0.029982   0.580672  -0.029990  -0.003910
     5  H    0.396285  -0.036165  -0.029990  -0.029990   0.580694   0.004576
     6  H   -0.036165   0.396285  -0.003911  -0.003910   0.004576   0.580694
     7  H   -0.036165   0.396269  -0.003910   0.004576  -0.003910  -0.029990
     8  H   -0.036161   0.396282   0.004576  -0.003910  -0.003911  -0.029990
               7          8
     1  C   -0.036165  -0.036161
     2  C    0.396269   0.396282
     3  H   -0.003910   0.004576
     4  H    0.004576  -0.003910
     5  H   -0.003910  -0.003911
     6  H   -0.029990  -0.029990
     7  H    0.580672  -0.029982
     8  H   -0.029982   0.580672
 Mulliken charges:
               1
     1  C   -0.367273
     2  C   -0.367273
     3  H    0.122424
     4  H    0.122439
     5  H    0.122409
     6  H    0.122409
     7  H    0.122439
     8  H    0.122424
 Sum of Mulliken charges =   0.00000
 Mulliken charges with hydrogens summed into heavy atoms:
               1
     1  C    0.000000
     2  C    0.000000
 Electronic spatial extent (au):  <R**2>=            109.3406
 Charge=              0.0000 electrons
 Dipole moment (field-independent basis, Debye):
    X=              0.0000    Y=              0.0000    Z=              0.0000  Tot=              0.0000
 Quadrupole moment (field-independent basis, Debye-Ang):
   XX=            -15.3776   YY=            -14.6987   ZZ=            -14.6971
   XY=              0.0356   XZ=             -0.0001   YZ=              0.0002
 Traceless Quadrupole moment (field-independent basis, Debye-Ang):
   XX=             -0.4531   YY=              0.2258   ZZ=              0.2273
   XY=              0.0356   XZ=             -0.0001   YZ=              0.0002
 Octapole moment (field-independent basis, Debye-Ang**2):
  XXX=              0.0000  YYY=              0.0000  ZZZ=              0.0000  XYY=              0.0000
  XXY=              0.0000  XXZ=              0.0000  XZZ=              0.0000  YZZ=              0.0000
  YYZ=              0.0000  XYZ=              0.0000
 Hexadecapole moment (field-independent basis, Debye-Ang**3):
 XXXX=            -92.7831 YYYY=            -29.1106 ZZZZ=            -28.7234 XXXY=              1.8531
 XXXZ=              0.0054 YYYX=              2.6048 YYYZ=             -0.1135 ZZZX=             -0.7352
 ZZZY=              0.0381 XXYY=            -18.9792 XXZZ=            -19.1712 YYZZ=             -9.4813
 XXYZ=              0.0761 YYXZ=              0.7288 ZZXY=             -0.6508
 N-N= 4.216957700541D+01 E-N=-2.681390133333D+02  KE= 7.902619703788D+01
 Symmetry AG   KE= 4.101880083802D+01
 Symmetry AU   KE= 3.800739619986D+01
 Calling FoFJK, ICntrl=      2127 FMM=F ISym2X=1 I1Cent= 0 IOpClX= 0 NMat=1 NMatS=1 NMatT=0.
 ***** Axes restored to original set *****
 -------------------------------------------------------------------
 Center     Atomic                   Forces (Hartrees/Bohr)
 Number     Number              X              Y              Z
 -------------------------------------------------------------------
      1        6           0.008421859   -0.000441082   -0.000007331
      2        6          -0.008421859    0.000441082    0.000007331
      3        1          -0.001795766   -0.000043496   -0.000440161
      4        1          -0.001745986    0.000508518    0.000112382
      5        1          -0.001801638   -0.000175716    0.000333785
      6        1           0.001801638    0.000175716   -0.000333785
      7        1           0.001745986   -0.000508518   -0.000112382
      8        1           0.001795766    0.000043496    0.000440161
 -------------------------------------------------------------------
 Cartesian Forces:  Max     0.008421859 RMS     0.002602092

 GradGradGradGradGradGradGradGradGradGradGradGradGradGradGradGradGradGrad
 Berny optimization.
 FormGI is forming the generalized inverse of G from B-inverse, IUseBI=4.
 Internal  Forces:  Max     0.003082199 RMS     0.001348709
 Search for a local minimum.
 Step number   1 out of a maximum of   38
 All quantities printed in internal units (Hartrees-Bohrs-Radians)
 Mixed Optimization -- RFO/linear search
 Second derivative matrix not updated -- first step.
 ITU=  0
     Eigenvalues ---    0.00280   0.05575   0.05575   0.05575   0.05575
     Eigenvalues ---    0.16000   0.16000   0.16000   0.16000   0.16000
     Eigenvalues ---    0.16000   0.28809   0.34549   0.34549   0.34549
     Eigenvalues ---    0.34549   0.34550   0.34550
 RFO step:  Lambda=-2.90553069D-04 EMin= 2.79920382D-03
 Linear search not attempted -- first point.
 Iteration  1 RMS(Cart)=  0.00862934 RMS(Int)=  0.00007330
 Iteration  2 RMS(Cart)=  0.00006594 RMS(Int)=  0.00004143
 Iteration  3 RMS(Cart)=  0.00000000 RMS(Int)=  0.00004143
 ClnCor:  largest displacement from symmetrization is 1.10D-08 for atom     8.
 Variable       Old X    -DE/DX   Delta X   Delta X   Delta X     New X
                                 (Linear)    (Quad)   (Total)
    R1        2.90402  -0.00308   0.00000  -0.01069  -0.01069   2.89333
    R2        2.06413   0.00019   0.00000   0.00056   0.00056   2.06469
    R3        2.06413   0.00021   0.00000   0.00061   0.00061   2.06474
    R4        2.06412   0.00022   0.00000   0.00065   0.00065   2.06477
    R5        2.06412   0.00022   0.00000   0.00065   0.00065   2.06477
    R6        2.06413   0.00021   0.00000   0.00061   0.00061   2.06474
    R7        2.06413   0.00019   0.00000   0.00056   0.00056   2.06469
    A1        1.92691   0.00184   0.00000   0.01140   0.01133   1.93825
    A2        1.92691   0.00180   0.00000   0.01127   0.01121   1.93812
    A3        1.92691   0.00182   0.00000   0.01141   0.01135   1.93826
    A4        1.89408  -0.00189   0.00000  -0.01182  -0.01188   1.88220
    A5        1.89407  -0.00190   0.00000  -0.01191  -0.01198   1.88210
    A6        1.89408  -0.00186   0.00000  -0.01151  -0.01157   1.88251
    A7        1.92691   0.00182   0.00000   0.01141   0.01135   1.93826
    A8        1.92691   0.00180   0.00000   0.01127   0.01121   1.93812
    A9        1.92691   0.00184   0.00000   0.01140   0.01133   1.93825
   A10        1.89408  -0.00186   0.00000  -0.01151  -0.01157   1.88251
   A11        1.89407  -0.00190   0.00000  -0.01191  -0.01198   1.88210
   A12        1.89408  -0.00189   0.00000  -0.01182  -0.01188   1.88220
    D1        1.04720   0.00001   0.00000   0.00015   0.00015   1.04735
    D2       -1.04719  -0.00001   0.00000  -0.00012  -0.00012  -1.04732
    D3        3.14159   0.00000   0.00000   0.00000   0.00000   3.14159
    D4       -1.04720   0.00002   0.00000   0.00027   0.00027  -1.04692
    D5        3.14159   0.00000   0.00000   0.00000   0.00000   3.14159
    D6        1.04719   0.00001   0.00000   0.00012   0.00012   1.04732
    D7        3.14159   0.00000   0.00000   0.00000   0.00000   3.14159
    D8        1.04720  -0.00002   0.00000  -0.00027  -0.00027   1.04692
    D9       -1.04720  -0.00001   0.00000  -0.00015  -0.00015  -1.04735
         Item               Value     Threshold  Converged?
 Maximum Force            0.003082     0.000450     NO 
 RMS     Force            0.001349     0.000300     NO 
 Maximum Displacement     0.016949     0.001800     NO 
 RMS     Displacement     0.008622     0.001200     NO 
 Predicted change in Energy=-1.455230D-04
 GradGradGradGradGradGradGradGradGradGradGradGradGradGradGradGradGradGrad

                          Input orientation:                          
 ---------------------------------------------------------------------
 Center     Atomic      Atomic             Coordinates (Angstroms)
 Number     Number       Type             X           Y           Z
 ---------------------------------------------------------------------
      1          6           0       -6.384875    0.650875   -0.000026
      2          6           0       -4.855835    0.571755    0.000026
      3          1           0       -6.759632    1.004563    0.963408
      4          1           0       -6.828470   -0.328905   -0.192535
      5          1           0       -6.742349    1.337854   -0.770809
      6          1           0       -4.498361   -0.115224    0.770809
      7          1           0       -4.412240    1.551535    0.192535
      8          1           0       -4.481078    0.218067   -0.963408
 ---------------------------------------------------------------------
                    Distance matrix (angstroms):
                    1          2          3          4          5
     1  C    0.000000
     2  C    1.531086   0.000000
     3  H    1.092585   2.177125   0.000000
     4  H    1.092614   2.177053   1.766092   0.000000
     5  H    1.092628   2.177161   1.766038   1.766325   0.000000
     6  H    2.177161   1.092628   2.530685   2.530435   3.086018
     7  H    2.177053   1.092614   2.530548   3.085855   2.530435
     8  H    2.177125   1.092585   3.085937   2.530548   2.530685
                    6          7          8
     6  H    0.000000
     7  H    1.766325   0.000000
     8  H    1.766038   1.766092   0.000000
 Stoichiometry    C2H6
 Framework group  CI[X(C2H6)]
 Deg. of freedom     9
 Full point group                 CI      NOp   2
 Largest Abelian subgroup         CI      NOp   2
 Largest concise Abelian subgroup CI      NOp   2
                         Standard orientation:                         
 ---------------------------------------------------------------------
 Center     Atomic      Atomic             Coordinates (Angstroms)
 Number     Number       Type             X           Y           Z
 ---------------------------------------------------------------------
      1          6           0       -0.764520    0.039560   -0.000026
      2          6           0        0.764520   -0.039560    0.000026
      3          1           0       -1.139277    0.393248    0.963408
      4          1           0       -1.208115   -0.940220   -0.192535
      5          1           0       -1.121994    0.726539   -0.770809
      6          1           0        1.121994   -0.726539    0.770809
      7          1           0        1.208115    0.940220    0.192535
      8          1           0        1.139277   -0.393248   -0.963408
 ---------------------------------------------------------------------
 Rotational constants (GHZ):     80.3796331     19.9617981     19.9608094
 Standard basis: 6-31G(d,p) (6D, 7F)
 There are    30 symmetry adapted cartesian basis functions of AG  symmetry.
 There are    30 symmetry adapted cartesian basis functions of AU  symmetry.
 There are    30 symmetry adapted basis functions of AG  symmetry.
 There are    30 symmetry adapted basis functions of AU  symmetry.
    60 basis functions,    98 primitive gaussians,    60 cartesian basis functions
     9 alpha electrons        9 beta electrons
       nuclear repulsion energy        42.1952289476 Hartrees.
 NAtoms=    8 NActive=    8 NUniq=    4 SFac= 4.00D+00 NAtFMM=   60 NAOKFM=F Big=F
 Integral buffers will be    131072 words long.
 Raffenetti 2 integral format.
 Two-electron integral symmetry is turned on.
 One-electron integrals computed using PRISM.
 NBasis=    60 RedAO= T EigKep=  5.74D-03  NBF=    30    30
 NBsUse=    60 1.00D-06 EigRej= -1.00D+00 NBFU=    30    30
 Initial guess from the checkpoint file:  "/scr/Gau-2061.chk"
 B after Tr=     0.000000    0.000000    0.000000
         Rot=    1.000000    0.000000    0.000005    0.000002 Ang=   0.00 deg.
 Initial guess orbital symmetries:
       Occupied  (AG) (AU) (AG) (AU) (AU) (AU) (AG) (AG) (AG)
       Virtual   (AG) (AG) (AG) (AG) (AG) (AG) (AG) (AG) (AG) (AG)
                 (AG) (AG) (AG) (AG) (AG) (AG) (AG) (AG) (AG) (AG)
                 (AG) (AG) (AG) (AG) (AG) (AU) (AU) (AU) (AU) (AU)
                 (AU) (AU) (AU) (AU) (AU) (AU) (AU) (AU) (AU) (AU)
                 (AU) (AU) (AU) (AU) (AU) (AU) (AU) (AU) (AU) (AU)
                 (AU)
 Keep R1 ints in memory in symmetry-blocked form, NReq=2592091.
 Requested convergence on RMS density matrix=1.00D-08 within 128 cycles.
 Requested convergence on MAX density matrix=1.00D-06.
 Requested convergence on             energy=1.00D-06.
 No special actions if energy rises.
 SCF Done:  E(RM062X) =  -79.7783709076     A.U. after    7 cycles
            NFock=  7  Conv=0.29D-08     -V/T= 2.0095
 Calling FoFJK, ICntrl=      2127 FMM=F ISym2X=1 I1Cent= 0 IOpClX= 0 NMat=1 NMatS=1 NMatT=0.
 ***** Axes restored to original set *****
 -------------------------------------------------------------------
 Center     Atomic                   Forces (Hartrees/Bohr)
 Number     Number              X              Y              Z
 -------------------------------------------------------------------
      1        6           0.003502392   -0.000198457   -0.000028084
      2        6          -0.003502392    0.000198457    0.000028084
      3        1          -0.000435913    0.000072042    0.000098392
      4        1          -0.000439814   -0.000076644   -0.000002105
      5        1          -0.000433806    0.000083200   -0.000069853
      6        1           0.000433806   -0.000083200    0.000069853
      7        1           0.000439814    0.000076644    0.000002105
      8        1           0.000435913   -0.000072042   -0.000098392
 -------------------------------------------------------------------
 Cartesian Forces:  Max     0.003502392 RMS     0.001037269

 GradGradGradGradGradGradGradGradGradGradGradGradGradGradGradGradGradGrad
 Berny optimization.
 Using GEDIIS/GDIIS optimizer.
 FormGI is forming the generalized inverse of G from B-inverse, IUseBI=4.
 Internal  Forces:  Max     0.002196122 RMS     0.000495477
 Search for a local minimum.
 Step number   2 out of a maximum of   38
 All quantities printed in internal units (Hartrees-Bohrs-Radians)
 Mixed Optimization -- En-DIIS/RFO-DIIS
 Update second derivatives using D2CorX and points    1    2
 DE= -1.83D-04 DEPred=-1.46D-04 R= 1.26D+00
 TightC=F SS=  1.41D+00  RLast= 4.15D-02 DXNew= 5.0454D-01 1.2438D-01
 Trust test= 1.26D+00 RLast= 4.15D-02 DXMaxT set to 3.00D-01
 ITU=  1  0
 Use linear search instead of GDIIS.
     Eigenvalues ---    0.00280   0.05455   0.05456   0.05457   0.05457
     Eigenvalues ---    0.12366   0.16000   0.16000   0.16000   0.16000
     Eigenvalues ---    0.16000   0.27536   0.34546   0.34549   0.34549
     Eigenvalues ---    0.34549   0.34550   0.34570
 RFO step:  Lambda=-1.52625377D-05 EMin= 2.79920382D-03
 Quartic linear search produced a step of  0.35843.
 Iteration  1 RMS(Cart)=  0.00191968 RMS(Int)=  0.00001988
 Iteration  2 RMS(Cart)=  0.00000796 RMS(Int)=  0.00001881
 Iteration  3 RMS(Cart)=  0.00000000 RMS(Int)=  0.00001881
 ClnCor:  largest displacement from symmetrization is 1.48D-08 for atom     6.
 Variable       Old X    -DE/DX   Delta X   Delta X   Delta X     New X
                                 (Linear)    (Quad)   (Total)
    R1        2.89333  -0.00220  -0.00383  -0.00710  -0.01093   2.88241
    R2        2.06469   0.00026   0.00020   0.00085   0.00105   2.06574
    R3        2.06474   0.00025   0.00022   0.00079   0.00101   2.06575
    R4        2.06477   0.00024   0.00023   0.00076   0.00100   2.06576
    R5        2.06477   0.00024   0.00023   0.00076   0.00100   2.06576
    R6        2.06474   0.00025   0.00022   0.00079   0.00101   2.06575
    R7        2.06469   0.00026   0.00020   0.00085   0.00105   2.06574
    A1        1.93825   0.00036   0.00406  -0.00040   0.00363   1.94188
    A2        1.93812   0.00036   0.00402  -0.00027   0.00372   1.94184
    A3        1.93826   0.00037   0.00407  -0.00033   0.00371   1.94196
    A4        1.88220  -0.00038  -0.00426   0.00038  -0.00391   1.87829
    A5        1.88210  -0.00039  -0.00429   0.00030  -0.00402   1.87808
    A6        1.88251  -0.00038  -0.00415   0.00038  -0.00380   1.87871
    A7        1.93826   0.00037   0.00407  -0.00033   0.00371   1.94196
    A8        1.93812   0.00036   0.00402  -0.00027   0.00372   1.94184
    A9        1.93825   0.00036   0.00406  -0.00040   0.00363   1.94188
   A10        1.88251  -0.00038  -0.00415   0.00038  -0.00380   1.87871
   A11        1.88210  -0.00039  -0.00429   0.00030  -0.00402   1.87808
   A12        1.88220  -0.00038  -0.00426   0.00038  -0.00391   1.87829
    D1        1.04735   0.00001   0.00005   0.00011   0.00016   1.04752
    D2       -1.04732   0.00000  -0.00004   0.00003  -0.00002  -1.04733
    D3        3.14159   0.00000   0.00000   0.00000   0.00000   3.14159
    D4       -1.04692   0.00001   0.00010   0.00008   0.00018  -1.04674
    D5        3.14159   0.00000   0.00000   0.00000   0.00000   3.14159
    D6        1.04732   0.00000   0.00004  -0.00003   0.00002   1.04733
    D7        3.14159   0.00000   0.00000   0.00000   0.00000   3.14159
    D8        1.04692  -0.00001  -0.00010  -0.00008  -0.00018   1.04674
    D9       -1.04735  -0.00001  -0.00005  -0.00011  -0.00016  -1.04752
         Item               Value     Threshold  Converged?
 Maximum Force            0.002196     0.000450     NO 
 RMS     Force            0.000495     0.000300     NO 
 Maximum Displacement     0.005454     0.001800     NO 
 RMS     Displacement     0.001920     0.001200     NO 
 Predicted change in Energy=-2.115886D-05
 GradGradGradGradGradGradGradGradGradGradGradGradGradGradGradGradGradGrad

                          Input orientation:                          
 ---------------------------------------------------------------------
 Center     Atomic      Atomic             Coordinates (Angstroms)
 Number     Number       Type             X           Y           Z
 ---------------------------------------------------------------------
      1          6           0       -6.381989    0.650700   -0.000060
      2          6           0       -4.858721    0.571930    0.000060
      3          1           0       -6.760707    1.004328    0.962476
      4          1           0       -6.829474   -0.327949   -0.192338
      5          1           0       -6.743443    1.337324   -0.770050
      6          1           0       -4.497267   -0.114694    0.770050
      7          1           0       -4.411236    1.550579    0.192338
      8          1           0       -4.480003    0.218302   -0.962476
 ---------------------------------------------------------------------
                    Distance matrix (angstroms):
                    1          2          3          4          5
     1  C    0.000000
     2  C    1.525304   0.000000
     3  H    1.093140   2.175033   0.000000
     4  H    1.093146   2.175010   1.764451   0.000000
     5  H    1.093154   2.175104   1.764322   1.764734   0.000000
     6  H    2.175104   1.093154   2.532272   2.531968   3.086353
     7  H    2.175010   1.093146   2.532098   3.086215   2.531968
     8  H    2.175033   1.093140   3.086242   2.532098   2.532272
                    6          7          8
     6  H    0.000000
     7  H    1.764734   0.000000
     8  H    1.764322   1.764451   0.000000
 Stoichiometry    C2H6
 Framework group  CI[X(C2H6)]
 Deg. of freedom     9
 Full point group                 CI      NOp   2
 Largest Abelian subgroup         CI      NOp   2
 Largest concise Abelian subgroup CI      NOp   2
                         Standard orientation:                         
 ---------------------------------------------------------------------
 Center     Atomic      Atomic             Coordinates (Angstroms)
 Number     Number       Type             X           Y           Z
 ---------------------------------------------------------------------
      1          6           0       -0.761634    0.039385   -0.000060
      2          6           0        0.761634   -0.039385    0.000060
      3          1           0       -1.140352    0.393013    0.962476
      4          1           0       -1.209119   -0.939264   -0.192338
      5          1           0       -1.123088    0.726009   -0.770050
      6          1           0        1.123088   -0.726009    0.770050
      7          1           0        1.209119    0.939264    0.192338
      8          1           0        1.140352   -0.393013   -0.962476
 ---------------------------------------------------------------------
 Rotational constants (GHZ):     80.5299911     20.0388075     20.0374303
 Standard basis: 6-31G(d,p) (6D, 7F)
 There are    30 symmetry adapted cartesian basis functions of AG  symmetry.
 There are    30 symmetry adapted cartesian basis functions of AU  symmetry.
 There are    30 symmetry adapted basis functions of AG  symmetry.
 There are    30 symmetry adapted basis functions of AU  symmetry.
    60 basis functions,    98 primitive gaussians,    60 cartesian basis functions
     9 alpha electrons        9 beta electrons
       nuclear repulsion energy        42.2429754295 Hartrees.
 NAtoms=    8 NActive=    8 NUniq=    4 SFac= 4.00D+00 NAtFMM=   60 NAOKFM=F Big=F
 Integral buffers will be    131072 words long.
 Raffenetti 2 integral format.
 Two-electron integral symmetry is turned on.
 One-electron integrals computed using PRISM.
 NBasis=    60 RedAO= T EigKep=  5.70D-03  NBF=    30    30
 NBsUse=    60 1.00D-06 EigRej= -1.00D+00 NBFU=    30    30
 Initial guess from the checkpoint file:  "/scr/Gau-2061.chk"
 B after Tr=     0.000000    0.000000    0.000000
         Rot=    1.000000    0.000000    0.000007   -0.000005 Ang=   0.00 deg.
 Initial guess orbital symmetries:
       Occupied  (AG) (AU) (AG) (AU) (AU) (AU) (AG) (AG) (AG)
       Virtual   (AG) (AG) (AG) (AG) (AG) (AG) (AG) (AG) (AG) (AG)
                 (AG) (AG) (AG) (AG) (AG) (AG) (AG) (AG) (AG) (AG)
                 (AG) (AG) (AG) (AG) (AG) (AU) (AU) (AU) (AU) (AU)
                 (AU) (AU) (AU) (AU) (AU) (AU) (AU) (AU) (AU) (AU)
                 (AU) (AU) (AU) (AU) (AU) (AU) (AU) (AU) (AU) (AU)
                 (AU)
 Keep R1 ints in memory in symmetry-blocked form, NReq=2592091.
 Requested convergence on RMS density matrix=1.00D-08 within 128 cycles.
 Requested convergence on MAX density matrix=1.00D-06.
 Requested convergence on             energy=1.00D-06.
 No special actions if energy rises.
 SCF Done:  E(RM062X) =  -79.7783908467     A.U. after    7 cycles
            NFock=  7  Conv=0.23D-08     -V/T= 2.0094
 Calling FoFJK, ICntrl=      2127 FMM=F ISym2X=1 I1Cent= 0 IOpClX= 0 NMat=1 NMatS=1 NMatT=0.
 ***** Axes restored to original set *****
 -------------------------------------------------------------------
 Center     Atomic                   Forces (Hartrees/Bohr)
 Number     Number              X              Y              Z
 -------------------------------------------------------------------
      1        6          -0.000276297    0.000012772    0.000001315
      2        6           0.000276297   -0.000012772   -0.000001315
      3        1          -0.000021013    0.000013596    0.000007817
      4        1          -0.000020913   -0.000006391    0.000009869
      5        1          -0.000023500   -0.000002198   -0.000010770
      6        1           0.000023500    0.000002198    0.000010770
      7        1           0.000020913    0.000006391   -0.000009869
      8        1           0.000021013   -0.000013596   -0.000007817
 -------------------------------------------------------------------
 Cartesian Forces:  Max     0.000276297 RMS     0.000080850

 GradGradGradGradGradGradGradGradGradGradGradGradGradGradGradGradGradGrad
 Berny optimization.
 Using GEDIIS/GDIIS optimizer.
 FormGI is forming the generalized inverse of G from B-inverse, IUseBI=4.
 Internal  Forces:  Max     0.000342186 RMS     0.000066064
 Search for a local minimum.
 Step number   3 out of a maximum of   38
 All quantities printed in internal units (Hartrees-Bohrs-Radians)
 Mixed Optimization -- En-DIIS/RFO-DIIS
 Swapping is turned off.
 Update second derivatives using D2CorX and points    1    2    3
 DE= -1.99D-05 DEPred=-2.12D-05 R= 9.42D-01
 TightC=F SS=  1.41D+00  RLast= 1.73D-02 DXNew= 5.0454D-01 5.1867D-02
 Trust test= 9.42D-01 RLast= 1.73D-02 DXMaxT set to 3.00D-01
 ITU=  1  1  0
     Eigenvalues ---    0.00280   0.05416   0.05416   0.05418   0.05418
     Eigenvalues ---    0.11978   0.16000   0.16000   0.16000   0.16000
     Eigenvalues ---    0.16000   0.29578   0.34495   0.34549   0.34549
     Eigenvalues ---    0.34550   0.34550   0.34551
 En-DIIS/RFO-DIIS IScMMF=        0 using points:     3    2
 RFO step:  Lambda=-2.25042386D-07.
 DidBck=F Rises=F RFO-DIIS coefs:    0.93735    0.06265
 Iteration  1 RMS(Cart)=  0.00034289 RMS(Int)=  0.00000027
 Iteration  2 RMS(Cart)=  0.00000000 RMS(Int)=  0.00000027
 ClnCor:  largest displacement from symmetrization is 9.65D-09 for atom     7.
 Variable       Old X    -DE/DX   Delta X   Delta X   Delta X     New X
                                 (Linear)    (Quad)   (Total)
    R1        2.88241   0.00034   0.00068   0.00050   0.00119   2.88359
    R2        2.06574   0.00002  -0.00007   0.00011   0.00005   2.06578
    R3        2.06575   0.00001  -0.00006   0.00009   0.00003   2.06578
    R4        2.06576   0.00001  -0.00006   0.00010   0.00004   2.06580
    R5        2.06576   0.00001  -0.00006   0.00010   0.00004   2.06580
    R6        2.06575   0.00001  -0.00006   0.00009   0.00003   2.06578
    R7        2.06574   0.00002  -0.00007   0.00011   0.00005   2.06578
    A1        1.94188   0.00002  -0.00023   0.00026   0.00003   1.94191
    A2        1.94184   0.00002  -0.00023   0.00025   0.00002   1.94186
    A3        1.94196   0.00002  -0.00023   0.00026   0.00002   1.94199
    A4        1.87829  -0.00002   0.00024  -0.00027  -0.00002   1.87827
    A5        1.87808  -0.00002   0.00025  -0.00028  -0.00002   1.87806
    A6        1.87871  -0.00002   0.00024  -0.00027  -0.00004   1.87868
    A7        1.94196   0.00002  -0.00023   0.00026   0.00002   1.94199
    A8        1.94184   0.00002  -0.00023   0.00025   0.00002   1.94186
    A9        1.94188   0.00002  -0.00023   0.00026   0.00003   1.94191
   A10        1.87871  -0.00002   0.00024  -0.00027  -0.00004   1.87868
   A11        1.87808  -0.00002   0.00025  -0.00028  -0.00002   1.87806
   A12        1.87829  -0.00002   0.00024  -0.00027  -0.00002   1.87827
    D1        1.04752   0.00000  -0.00001   0.00000  -0.00001   1.04751
    D2       -1.04733   0.00000   0.00000   0.00001   0.00001  -1.04733
    D3        3.14159   0.00000   0.00000   0.00000   0.00000   3.14159
    D4       -1.04674   0.00000  -0.00001   0.00000  -0.00002  -1.04676
    D5        3.14159   0.00000   0.00000   0.00000   0.00000   3.14159
    D6        1.04733   0.00000   0.00000  -0.00001  -0.00001   1.04733
    D7        3.14159   0.00000   0.00000   0.00000   0.00000   3.14159
    D8        1.04674   0.00000   0.00001   0.00000   0.00002   1.04676
    D9       -1.04752   0.00000   0.00001   0.00000   0.00001  -1.04751
         Item               Value     Threshold  Converged?
 Maximum Force            0.000342     0.000450     YES
 RMS     Force            0.000066     0.000300     YES
 Maximum Displacement     0.000664     0.001800     YES
 RMS     Displacement     0.000343     0.001200     YES
 Predicted change in Energy=-2.075638D-07
 Optimization completed.
    -- Stationary point found.
                           ----------------------------
                           !   Optimized Parameters   !
                           ! (Angstroms and Degrees)  !
 --------------------------                            --------------------------
 ! Name  Definition              Value          Derivative Info.                !
 --------------------------------------------------------------------------------
 ! R1    R(1,2)                  1.5253         -DE/DX =    0.0003              !
 ! R2    R(1,3)                  1.0931         -DE/DX =    0.0                 !
 ! R3    R(1,4)                  1.0931         -DE/DX =    0.0                 !
 ! R4    R(1,5)                  1.0932         -DE/DX =    0.0                 !
 ! R5    R(2,6)                  1.0932         -DE/DX =    0.0                 !
 ! R6    R(2,7)                  1.0931         -DE/DX =    0.0                 !
 ! R7    R(2,8)                  1.0931         -DE/DX =    0.0                 !
 ! A1    A(2,1,3)              111.2615         -DE/DX =    0.0                 !
 ! A2    A(2,1,4)              111.2593         -DE/DX =    0.0                 !
 ! A3    A(2,1,5)              111.2663         -DE/DX =    0.0                 !
 ! A4    A(3,1,4)              107.6182         -DE/DX =    0.0                 !
 ! A5    A(3,1,5)              107.6061         -DE/DX =    0.0                 !
 ! A6    A(4,1,5)              107.6423         -DE/DX =    0.0                 !
 ! A7    A(1,2,6)              111.2663         -DE/DX =    0.0                 !
 ! A8    A(1,2,7)              111.2593         -DE/DX =    0.0                 !
 ! A9    A(1,2,8)              111.2615         -DE/DX =    0.0                 !
 ! A10   A(6,2,7)              107.6423         -DE/DX =    0.0                 !
 ! A11   A(6,2,8)              107.6061         -DE/DX =    0.0                 !
 ! A12   A(7,2,8)              107.6182         -DE/DX =    0.0                 !
 ! D1    D(3,1,2,6)             60.0183         -DE/DX =    0.0                 !
 ! D2    D(3,1,2,7)            -60.0078         -DE/DX =    0.0                 !
 ! D3    D(3,1,2,8)            180.0            -DE/DX =    0.0                 !
 ! D4    D(4,1,2,6)            -59.9739         -DE/DX =    0.0                 !
 ! D5    D(4,1,2,7)            180.0            -DE/DX =    0.0                 !
 ! D6    D(4,1,2,8)             60.0078         -DE/DX =    0.0                 !
 ! D7    D(5,1,2,6)            180.0            -DE/DX =    0.0                 !
 ! D8    D(5,1,2,7)             59.9739         -DE/DX =    0.0                 !
 ! D9    D(5,1,2,8)            -60.0183         -DE/DX =    0.0                 !
 --------------------------------------------------------------------------------
 GradGradGradGradGradGradGradGradGradGradGradGradGradGradGradGradGradGrad

                          Input orientation:                          
 ---------------------------------------------------------------------
 Center     Atomic      Atomic             Coordinates (Angstroms)
 Number     Number       Type             X           Y           Z
 ---------------------------------------------------------------------
      1          6           0       -6.381989    0.650700   -0.000060
      2          6           0       -4.858721    0.571930    0.000060
      3          1           0       -6.760707    1.004328    0.962476
      4          1           0       -6.829474   -0.327949   -0.192338
      5          1           0       -6.743443    1.337324   -0.770050
      6          1           0       -4.497267   -0.114694    0.770050
      7          1           0       -4.411236    1.550579    0.192338
      8          1           0       -4.480003    0.218302   -0.962476
 ---------------------------------------------------------------------
                    Distance matrix (angstroms):
                    1          2          3          4          5
     1  C    0.000000
     2  C    1.525304   0.000000
     3  H    1.093140   2.175033   0.000000
     4  H    1.093146   2.175010   1.764451   0.000000
     5  H    1.093154   2.175104   1.764322   1.764734   0.000000
     6  H    2.175104   1.093154   2.532272   2.531968   3.086353
     7  H    2.175010   1.093146   2.532098   3.086215   2.531968
     8  H    2.175033   1.093140   3.086242   2.532098   2.532272
                    6          7          8
     6  H    0.000000
     7  H    1.764734   0.000000
     8  H    1.764322   1.764451   0.000000
 Stoichiometry    C2H6
 Framework group  CI[X(C2H6)]
 Deg. of freedom     9
 Full point group                 CI      NOp   2
 Largest Abelian subgroup         CI      NOp   2
 Largest concise Abelian subgroup CI      NOp   2
                         Standard orientation:                         
 ---------------------------------------------------------------------
 Center     Atomic      Atomic             Coordinates (Angstroms)
 Number     Number       Type             X           Y           Z
 ---------------------------------------------------------------------
      1          6           0       -0.761634    0.039385   -0.000060
      2          6           0        0.761634   -0.039385    0.000060
      3          1           0       -1.140352    0.393013    0.962476
      4          1           0       -1.209119   -0.939264   -0.192338
      5          1           0       -1.123088    0.726009   -0.770050
      6          1           0        1.123088   -0.726009    0.770050
      7          1           0        1.209119    0.939264    0.192338
      8          1           0        1.140352   -0.393013   -0.962476
 ---------------------------------------------------------------------
 Rotational constants (GHZ):     80.5299911     20.0388075     20.0374303

 **********************************************************************

            Population analysis using the SCF density.

 **********************************************************************

 Orbital symmetries:
       Occupied  (AG) (AU) (AG) (AU) (AU) (AU) (AG) (AG) (AG)
       Virtual   (AG) (AU) (AU) (AU) (AG) (AG) (AU) (AG) (AU) (AU)
                 (AG) (AG) (AU) (AU) (AU) (AG) (AG) (AG) (AU) (AG)
                 (AU) (AU) (AU) (AG) (AG) (AG) (AU) (AG) (AU) (AU)
                 (AG) (AG) (AU) (AU) (AU) (AG) (AG) (AG) (AU) (AU)
                 (AU) (AG) (AG) (AG) (AU) (AG) (AG) (AU) (AU) (AG)
                 (AU)
 The electronic state is 1-AG.
 Alpha  occ. eigenvalues --  -10.52994 -10.52958  -0.84523  -0.69674  -0.49842
 Alpha  occ. eigenvalues --   -0.49833  -0.42343  -0.39902  -0.39893
 Alpha virt. eigenvalues --    0.15095   0.20659   0.21265   0.21266   0.23658
 Alpha virt. eigenvalues --    0.23661   0.28852   0.55648   0.58568   0.58573
 Alpha virt. eigenvalues --    0.66912   0.66921   0.73232   0.93330   0.93333
 Alpha virt. eigenvalues --    0.95944   0.96424   0.96435   1.02992   1.10416
 Alpha virt. eigenvalues --    1.39144   1.39146   1.47549   1.74157   1.74172
 Alpha virt. eigenvalues --    1.91852   2.10710   2.10765   2.12259   2.12271
 Alpha virt. eigenvalues --    2.14319   2.14337   2.31039   2.31044   2.37996
 Alpha virt. eigenvalues --    2.51052   2.51070   2.71174   2.78677   2.81893
 Alpha virt. eigenvalues --    2.81917   2.92358   2.92376   3.13808   3.23280
 Alpha virt. eigenvalues --    3.38898   3.38913   3.51481   3.51505   4.34673
 Alpha virt. eigenvalues --    4.60282
          Condensed to atoms (all electrons):
               1          2          3          4          5          6
     1  C    4.928585   0.356761   0.396144   0.396140   0.396155  -0.035717
     2  C    0.356761   4.928585  -0.035722  -0.035729  -0.035717   0.396155
     3  H    0.396144  -0.035722   0.582241  -0.030777  -0.030804  -0.003925
     4  H    0.396140  -0.035729  -0.030777   0.582172  -0.030750  -0.003919
     5  H    0.396155  -0.035717  -0.030804  -0.030750   0.582206   0.004562
     6  H   -0.035717   0.396155  -0.003925  -0.003919   0.004562   0.582206
     7  H   -0.035729   0.396140  -0.003923   0.004563  -0.003919  -0.030750
     8  H   -0.035722   0.396144   0.004564  -0.003923  -0.003925  -0.030804
               7          8
     1  C   -0.035729  -0.035722
     2  C    0.396140   0.396144
     3  H   -0.003923   0.004564
     4  H    0.004563  -0.003923
     5  H   -0.003919  -0.003925
     6  H   -0.030750  -0.030804
     7  H    0.582172  -0.030777
     8  H   -0.030777   0.582241
 Mulliken charges:
               1
     1  C   -0.366616
     2  C   -0.366616
     3  H    0.122202
     4  H    0.122222
     5  H    0.122192
     6  H    0.122192
     7  H    0.122222
     8  H    0.122202
 Sum of Mulliken charges =   0.00000
 Mulliken charges with hydrogens summed into heavy atoms:
               1
     1  C    0.000000
     2  C    0.000000
 Electronic spatial extent (au):  <R**2>=            109.2006
 Charge=              0.0000 electrons
 Dipole moment (field-independent basis, Debye):
    X=              0.0000    Y=              0.0000    Z=              0.0000  Tot=              0.0000
 Quadrupole moment (field-independent basis, Debye-Ang):
   XX=            -15.2357   YY=            -14.7453   ZZ=            -14.7466
   XY=              0.0253   XZ=             -0.0005   YZ=             -0.0003
 Traceless Quadrupole moment (field-independent basis, Debye-Ang):
   XX=             -0.3265   YY=              0.1639   ZZ=              0.1626
   XY=              0.0253   XZ=             -0.0005   YZ=             -0.0003
 Octapole moment (field-independent basis, Debye-Ang**2):
  XXX=              0.0000  YYY=              0.0000  ZZZ=              0.0000  XYY=              0.0000
  XXY=              0.0000  XXZ=              0.0000  XZZ=              0.0000  YZZ=              0.0000
  YYZ=              0.0000  XYZ=              0.0000
 Hexadecapole moment (field-independent basis, Debye-Ang**3):
 XXXX=            -92.2717 YYYY=            -29.1127 ZZZZ=            -28.7279 XXXY=              1.8331
 XXXZ=              0.0036 YYYX=              2.5815 YYYZ=             -0.1118 ZZZX=             -0.7254
 ZZZY=              0.0380 XXYY=            -18.9323 XXZZ=            -19.1235 YYZZ=             -9.4846
 XXYZ=              0.0745 YYXZ=              0.7182 ZZXY=             -0.6368
 N-N= 4.224297542946D+01 E-N=-2.682866404073D+02  KE= 7.903339286146D+01
 Symmetry AG   KE= 4.103313326427D+01
 Symmetry AU   KE= 3.800025959718D+01
 1\1\GINC-N0286\FOpt\RM062X\6-31G(d,p)\C2H6\GDAVIDS3\21-Feb-2017\0\\#n 
 M062X/6-31G(d,p) Opt\\Ethane M062X 6-31Gdp\\0,1\C,-6.3819894397,0.6507
 000964,-0.000059983\C,-4.8587205603,0.5719299036,0.000059983\H,-6.7607
 074812,1.0043279347,0.9624758001\H,-6.8294744927,-0.3279488194,-0.1923
 384327\H,-6.7434431016,1.3373242993,-0.7700501869\H,-4.4972668984,-0.1
 146942993,0.7700501869\H,-4.4112355073,1.5505788194,0.1923384327\H,-4.
 4800025188,0.2183020653,-0.9624758001\\Version=ES64L-G09RevE.01\State=
 1-AG\HF=-79.7783908\RMSD=2.310e-09\RMSF=8.085e-05\Dipole=0.,0.,0.\Quad
 rupole=-0.2427422,0.1218783,0.1208639,0.0188235,-0.0003674,-0.0001927\
 PG=CI [X(C2H6)]\\@


 THE WHOLE OF SCIENCE IS NOTHING MORE THAN A REFINEMENT OF EVERYDAY THINKING.
                                                              -- A. EINSTEIN
 Job cpu time:       0 days  0 hours  0 minutes 44.0 seconds.
 File lengths (MBytes):  RWF=      5 Int=      0 D2E=      0 Chk=      1 Scr=      1
 Normal termination of Gaussian 09 at Tue Feb 21 17:23:02 2017.
