 Entering Gaussian System, Link 0=g09
 Input=Ethane_M062X_LANL2DZ.com
 Output=Ethane_M062X_LANL2DZ.log
 Initial command:
 /sw/contrib/gaussian/g09/E01/g09/l1.exe "/scr/Gau-22748.inp" -scrdir="/scr/"
 Entering Link 1 = /sw/contrib/gaussian/g09/E01/g09/l1.exe PID=     22749.
  
 Copyright (c) 1988,1990,1992,1993,1995,1998,2003,2009,2015,
            Gaussian, Inc.  All Rights Reserved.
  
 This is part of the Gaussian(R) 09 program.  It is based on
 the Gaussian(R) 03 system (copyright 2003, Gaussian, Inc.),
 the Gaussian(R) 98 system (copyright 1998, Gaussian, Inc.),
 the Gaussian(R) 94 system (copyright 1995, Gaussian, Inc.),
 the Gaussian 92(TM) system (copyright 1992, Gaussian, Inc.),
 the Gaussian 90(TM) system (copyright 1990, Gaussian, Inc.),
 the Gaussian 88(TM) system (copyright 1988, Gaussian, Inc.),
 the Gaussian 86(TM) system (copyright 1986, Carnegie Mellon
 University), and the Gaussian 82(TM) system (copyright 1983,
 Carnegie Mellon University). Gaussian is a federally registered
 trademark of Gaussian, Inc.
  
 This software contains proprietary and confidential information,
 including trade secrets, belonging to Gaussian, Inc.
  
 This software is provided under written license and may be
 used, copied, transmitted, or stored only in accord with that
 written license.
  
 The following legend is applicable only to US Government
 contracts under FAR:
  
                    RESTRICTED RIGHTS LEGEND
  
 Use, reproduction and disclosure by the US Government is
 subject to restrictions as set forth in subparagraphs (a)
 and (c) of the Commercial Computer Software - Restricted
 Rights clause in FAR 52.227-19.
  
 Gaussian, Inc.
 340 Quinnipiac St., Bldg. 40, Wallingford CT 06492
  
  
 ---------------------------------------------------------------
 Warning -- This program may not be used in any manner that
 competes with the business of Gaussian, Inc. or will provide
 assistance to any competitor of Gaussian, Inc.  The licensee
 of this program is prohibited from giving any competitor of
 Gaussian, Inc. access to this program.  By using this program,
 the user acknowledges that Gaussian, Inc. is engaged in the
 business of creating and licensing software in the field of
 computational chemistry and represents and warrants to the
 licensee that it is not a competitor of Gaussian, Inc. and that
 it will not use this program in any manner prohibited above.
 ---------------------------------------------------------------
  

 Cite this work as:
 Gaussian 09, Revision E.01,
 M. J. Frisch, G. W. Trucks, H. B. Schlegel, G. E. Scuseria, 
 M. A. Robb, J. R. Cheeseman, G. Scalmani, V. Barone, B. Mennucci, 
 G. A. Petersson, H. Nakatsuji, M. Caricato, X. Li, H. P. Hratchian, 
 A. F. Izmaylov, J. Bloino, G. Zheng, J. L. Sonnenberg, M. Hada, 
 M. Ehara, K. Toyota, R. Fukuda, J. Hasegawa, M. Ishida, T. Nakajima, 
 Y. Honda, O. Kitao, H. Nakai, T. Vreven, J. A. Montgomery, Jr., 
 J. E. Peralta, F. Ogliaro, M. Bearpark, J. J. Heyd, E. Brothers, 
 K. N. Kudin, V. N. Staroverov, T. Keith, R. Kobayashi, J. Normand, 
 K. Raghavachari, A. Rendell, J. C. Burant, S. S. Iyengar, J. Tomasi, 
 M. Cossi, N. Rega, J. M. Millam, M. Klene, J. E. Knox, J. B. Cross, 
 V. Bakken, C. Adamo, J. Jaramillo, R. Gomperts, R. E. Stratmann, 
 O. Yazyev, A. J. Austin, R. Cammi, C. Pomelli, J. W. Ochterski, 
 R. L. Martin, K. Morokuma, V. G. Zakrzewski, G. A. Voth, 
 P. Salvador, J. J. Dannenberg, S. Dapprich, A. D. Daniels, 
 O. Farkas, J. B. Foresman, J. V. Ortiz, J. Cioslowski, 
 and D. J. Fox, Gaussian, Inc., Wallingford CT, 2013.
 
 ******************************************
 Gaussian 09:  ES64L-G09RevE.01 30-Nov-2015
                21-Feb-2017 
 ******************************************
 %NProcShared=8
 Will use up to    8 processors via shared memory.
 --------------------
 #n M062X/LANL2DZ Opt
 --------------------
 1/14=-1,18=20,19=15,26=3,38=1/1,3;
 2/9=110,12=2,17=6,18=5,40=1/2;
 3/5=6,6=3,11=2,16=1,25=1,30=1,71=1,74=-55/1,2,3;
 4//1;
 5/5=2,38=5/2;
 6/7=2,8=2,9=2,10=2,28=1/1;
 7//1,2,3,16;
 1/14=-1,18=20,19=15,26=3/3(2);
 2/9=110/2;
 99//99;
 2/9=110/2;
 3/5=6,6=3,11=2,16=1,25=1,30=1,71=1,74=-55/1,2,3;
 4/5=5,16=3,69=1/1;
 5/5=2,38=5/2;
 7//1,2,3,16;
 1/14=-1,18=20,19=15,26=3/3(-5);
 2/9=110/2;
 6/7=2,8=2,9=2,10=2,19=2,28=1/1;
 99/9=1/99;
 --------------------
 Ethane M062X LANL2DZ
 --------------------
 Symbolic Z-matrix:
 Charge =  0 Multiplicity = 1
 C                    -6.3877    0.65101   0. 
 C                    -4.85301   0.57162   0. 
 H                    -6.75069   1.00542   0.96733 
 H                    -6.81994  -0.3333   -0.19339 
 H                    -6.73338   1.33993  -0.77394 
 H                    -4.50733  -0.1173    0.77394 
 H                    -4.42077   1.55593   0.19339 
 H                    -4.49002   0.21721  -0.96733 
 

 GradGradGradGradGradGradGradGradGradGradGradGradGradGradGradGradGradGrad
 Berny optimization.
 Initialization pass.
                           ----------------------------
                           !    Initial Parameters    !
                           ! (Angstroms and Degrees)  !
 --------------------------                            --------------------------
 ! Name  Definition              Value          Derivative Info.                !
 --------------------------------------------------------------------------------
 ! R1    R(1,2)                  1.5367         estimate D2E/DX2                !
 ! R2    R(1,3)                  1.0923         estimate D2E/DX2                !
 ! R3    R(1,4)                  1.0923         estimate D2E/DX2                !
 ! R4    R(1,5)                  1.0923         estimate D2E/DX2                !
 ! R5    R(2,6)                  1.0923         estimate D2E/DX2                !
 ! R6    R(2,7)                  1.0923         estimate D2E/DX2                !
 ! R7    R(2,8)                  1.0923         estimate D2E/DX2                !
 ! A1    A(2,1,3)              110.4041         estimate D2E/DX2                !
 ! A2    A(2,1,4)              110.4039         estimate D2E/DX2                !
 ! A3    A(2,1,5)              110.4038         estimate D2E/DX2                !
 ! A4    A(3,1,4)              108.5227         estimate D2E/DX2                !
 ! A5    A(3,1,5)              108.5224         estimate D2E/DX2                !
 ! A6    A(4,1,5)              108.5227         estimate D2E/DX2                !
 ! A7    A(1,2,6)              110.4038         estimate D2E/DX2                !
 ! A8    A(1,2,7)              110.4039         estimate D2E/DX2                !
 ! A9    A(1,2,8)              110.4041         estimate D2E/DX2                !
 ! A10   A(6,2,7)              108.5227         estimate D2E/DX2                !
 ! A11   A(6,2,8)              108.5224         estimate D2E/DX2                !
 ! A12   A(7,2,8)              108.5227         estimate D2E/DX2                !
 ! D1    D(3,1,2,6)             60.0002         estimate D2E/DX2                !
 ! D2    D(3,1,2,7)            -59.9998         estimate D2E/DX2                !
 ! D3    D(3,1,2,8)            180.0            estimate D2E/DX2                !
 ! D4    D(4,1,2,6)            -60.0            estimate D2E/DX2                !
 ! D5    D(4,1,2,7)            180.0            estimate D2E/DX2                !
 ! D6    D(4,1,2,8)             59.9998         estimate D2E/DX2                !
 ! D7    D(5,1,2,6)            180.0            estimate D2E/DX2                !
 ! D8    D(5,1,2,7)             60.0            estimate D2E/DX2                !
 ! D9    D(5,1,2,8)            -60.0002         estimate D2E/DX2                !
 --------------------------------------------------------------------------------
 Trust Radius=3.00D-01 FncErr=1.00D-07 GrdErr=1.00D-06
 Number of steps in this run=     38 maximum allowed number of steps=    100.
 GradGradGradGradGradGradGradGradGradGradGradGradGradGradGradGradGradGrad

                          Input orientation:                          
 ---------------------------------------------------------------------
 Center     Atomic      Atomic             Coordinates (Angstroms)
 Number     Number       Type             X           Y           Z
 ---------------------------------------------------------------------
      1          6           0       -6.387700    0.651010    0.000000
      2          6           0       -4.853010    0.571620    0.000000
      3          1           0       -6.750690    1.005420    0.967330
      4          1           0       -6.819940   -0.333300   -0.193390
      5          1           0       -6.733380    1.339930   -0.773940
      6          1           0       -4.507330   -0.117300    0.773940
      7          1           0       -4.420770    1.555930    0.193390
      8          1           0       -4.490020    0.217210   -0.967330
 ---------------------------------------------------------------------
                    Distance matrix (angstroms):
                    1          2          3          4          5
     1  C    0.000000
     2  C    1.536742   0.000000
     3  H    1.092289   2.173729   0.000000
     4  H    1.092290   2.173728   1.773200   0.000000
     5  H    1.092286   2.173724   1.773194   1.773198   0.000000
     6  H    2.173724   1.092286   2.516061   2.516058   3.078108
     7  H    2.173728   1.092290   2.516063   3.078117   2.516058
     8  H    2.173729   1.092289   3.078118   2.516063   2.516061
                    6          7          8
     6  H    0.000000
     7  H    1.773198   0.000000
     8  H    1.773194   1.773200   0.000000
 This structure is nearly, but not quite of a higher symmetry.
 Consider Symm=Loose if the higher symmetry is desired.
 Stoichiometry    C2H6
 Framework group  CI[X(C2H6)]
 Deg. of freedom     9
 Full point group                 CI      NOp   2
 Largest Abelian subgroup         CI      NOp   2
 Largest concise Abelian subgroup CI      NOp   2
                         Standard orientation:                         
 ---------------------------------------------------------------------
 Center     Atomic      Atomic             Coordinates (Angstroms)
 Number     Number       Type             X           Y           Z
 ---------------------------------------------------------------------
      1          6           0       -0.767345    0.039695    0.000000
      2          6           0        0.767345   -0.039695    0.000000
      3          1           0       -1.130335    0.394105    0.967330
      4          1           0       -1.199585   -0.944615   -0.193390
      5          1           0       -1.113025    0.728615   -0.773940
      6          1           0        1.113025   -0.728615    0.773940
      7          1           0        1.199585    0.944615    0.193390
      8          1           0        1.130335   -0.394105   -0.967330
 ---------------------------------------------------------------------
 Rotational constants (GHZ):     79.7421566     19.9565168     19.9564985
 Standard basis: LANL2DZ (5D, 7F)
 There are    15 symmetry adapted cartesian basis functions of AG  symmetry.
 There are    15 symmetry adapted cartesian basis functions of AU  symmetry.
 There are    15 symmetry adapted basis functions of AG  symmetry.
 There are    15 symmetry adapted basis functions of AU  symmetry.
    30 basis functions,    74 primitive gaussians,    30 cartesian basis functions
     9 alpha electrons        9 beta electrons
       nuclear repulsion energy        42.1695770054 Hartrees.
 NAtoms=    8 NActive=    8 NUniq=    4 SFac= 4.00D+00 NAtFMM=   60 NAOKFM=F Big=F
 Integral buffers will be    131072 words long.
 Raffenetti 2 integral format.
 Two-electron integral symmetry is turned on.
 One-electron integrals computed using PRISM.
   2 Symmetry operations used in ECPInt.
 ECPInt:  NShTT=     253 NPrTT=    1559 LenC2=     254 LenP2D=    1400.
 LDataN:  DoStor=T MaxTD1= 2 Len=   12
 NBasis=    30 RedAO= T EigKep=  6.44D-03  NBF=    15    15
 NBsUse=    30 1.00D-06 EigRej= -1.00D+00 NBFU=    15    15
 ExpMin= 1.15D-01 ExpMax= 4.23D+03 ExpMxC= 1.46D+02 IAcc=1 IRadAn=         1 AccDes= 0.00D+00
 Harris functional with IExCor= 1009 and IRadAn=       1 diagonalized for initial guess.
 HarFok:  IExCor= 1009 AccDes= 0.00D+00 IRadAn=         1 IDoV= 1 UseB2=F ITyADJ=14
 ICtDFT=  3500011 ScaDFX=  1.000000  1.000000  1.000000  1.000000
 FoFCou: FMM=F IPFlag=           0 FMFlag=      100000 FMFlg1=           0
         NFxFlg=           0 DoJE=T BraDBF=F KetDBF=T FulRan=T
         wScrn=  0.000000 ICntrl=     500 IOpCl=  0 I1Cent=   200000004 NGrid=           0
         NMat0=    1 NMatS0=      1 NMatT0=    0 NMatD0=    1 NMtDS0=    0 NMtDT0=    0
 Petite list used in FoFCou.
 Initial guess orbital symmetries:
       Occupied  (AG) (AU) (AG) (AU) (AU) (AU) (AG) (AG) (AG)
       Virtual   (AU) (AG) (AU) (AU) (AG) (AG) (AU) (AU) (AU) (AG)
                 (AG) (AG) (AU) (AG) (AU) (AG) (AU) (AU) (AG) (AG)
                 (AU)
 The electronic state of the initial guess is 1-AG.
 Keep R1 ints in memory in symmetry-blocked form, NReq=992247.
 Requested convergence on RMS density matrix=1.00D-08 within 128 cycles.
 Requested convergence on MAX density matrix=1.00D-06.
 Requested convergence on             energy=1.00D-06.
 No special actions if energy rises.
 Integral accuracy reduced to 1.0D-05 until final iterations.
 Initial convergence to 1.0D-05 achieved.  Increase integral accuracy.
 SCF Done:  E(RM062X) =  -79.7643486771     A.U. after   11 cycles
            NFock= 11  Conv=0.32D-08     -V/T= 2.0059

 **********************************************************************

            Population analysis using the SCF density.

 **********************************************************************

 Orbital symmetries:
       Occupied  (AG) (AU) (AG) (AU) (AU) (AU) (AG) (AG) (AG)
       Virtual   (AU) (AG) (AG) (AG) (AU) (AU) (AU) (AU) (AU) (AG)
                 (AG) (AG) (AU) (AG) (AU) (AG) (AU) (AU) (AG) (AG)
                 (AU)
 The electronic state is 1-AG.
 Alpha  occ. eigenvalues --  -10.52958 -10.52925  -0.84313  -0.69533  -0.50004
 Alpha  occ. eigenvalues --   -0.50003  -0.41786  -0.40001  -0.39999
 Alpha virt. eigenvalues --    0.17095   0.18068   0.23215   0.23216   0.26797
 Alpha virt. eigenvalues --    0.26798   0.28879   0.33967   0.33969   0.33979
 Alpha virt. eigenvalues --    0.38685   0.38689   0.55565   0.97352   1.10447
 Alpha virt. eigenvalues --    1.15067   1.18518   1.18526   1.21090   1.21099
 Alpha virt. eigenvalues --    1.39659
          Condensed to atoms (all electrons):
               1          2          3          4          5          6
     1  C    5.262188   0.301245   0.385246   0.385240   0.385250  -0.041569
     2  C    0.301245   5.262188  -0.041573  -0.041572  -0.041569   0.385250
     3  H    0.385246  -0.041573   0.502940  -0.021406  -0.021411  -0.002540
     4  H    0.385240  -0.041572  -0.021406   0.502908  -0.021399  -0.002539
     5  H    0.385250  -0.041569  -0.021411  -0.021399   0.502938   0.003135
     6  H   -0.041569   0.385250  -0.002540  -0.002539   0.003135   0.502938
     7  H   -0.041572   0.385240  -0.002539   0.003134  -0.002539  -0.021399
     8  H   -0.041573   0.385246   0.003135  -0.002539  -0.002540  -0.021411
               7          8
     1  C   -0.041572  -0.041573
     2  C    0.385240   0.385246
     3  H   -0.002539   0.003135
     4  H    0.003134  -0.002539
     5  H   -0.002539  -0.002540
     6  H   -0.021399  -0.021411
     7  H    0.502908  -0.021406
     8  H   -0.021406   0.502940
 Mulliken charges:
               1
     1  C   -0.594456
     2  C   -0.594456
     3  H    0.198148
     4  H    0.198174
     5  H    0.198134
     6  H    0.198134
     7  H    0.198174
     8  H    0.198148
 Sum of Mulliken charges =   0.00000
 Mulliken charges with hydrogens summed into heavy atoms:
               1
     1  C    0.000000
     2  C    0.000000
 Electronic spatial extent (au):  <R**2>=            109.1855
 Charge=              0.0000 electrons
 Dipole moment (field-independent basis, Debye):
    X=              0.0000    Y=              0.0000    Z=              0.0000  Tot=              0.0000
 Quadrupole moment (field-independent basis, Debye-Ang):
   XX=            -15.3369   YY=            -14.6147   ZZ=            -14.6132
   XY=              0.0378   XZ=             -0.0001   YZ=              0.0001
 Traceless Quadrupole moment (field-independent basis, Debye-Ang):
   XX=             -0.4819   YY=              0.2402   ZZ=              0.2417
   XY=              0.0378   XZ=             -0.0001   YZ=              0.0001
 Octapole moment (field-independent basis, Debye-Ang**2):
  XXX=              0.0000  YYY=              0.0000  ZZZ=              0.0000  XYY=              0.0000
  XXY=              0.0000  XXZ=              0.0000  XZZ=              0.0000  YZZ=              0.0000
  YYZ=              0.0000  XYZ=              0.0000
 Hexadecapole moment (field-independent basis, Debye-Ang**3):
 XXXX=            -92.8129 YYYY=            -28.4663 ZZZZ=            -28.0454 XXXY=              1.9146
 XXXZ=              0.0066 YYYX=              2.7565 YYYZ=             -0.1312 ZZZX=             -0.8485
 ZZZY=              0.0440 XXYY=            -18.5856 XXZZ=            -18.8106 YYZZ=             -9.2365
 XXYZ=              0.0876 YYXZ=              0.8416 ZZXY=             -0.8354
 N-N= 4.216957700541D+01 E-N=-2.683746783286D+02  KE= 7.929782076302D+01
 Symmetry AG   KE= 4.116254193211D+01
 Symmetry AU   KE= 3.813527883090D+01
   2 Symmetry operations used in ECPInt.
 ECPInt:  NShTT=     253 NPrTT=    1559 LenC2=     254 LenP2D=    1400.
 LDataN:  DoStor=T MaxTD1= 3 Len=   28
 Calling FoFJK, ICntrl=      2127 FMM=F ISym2X=1 I1Cent= 0 IOpClX= 0 NMat=1 NMatS=1 NMatT=0.
 ***** Axes restored to original set *****
 -------------------------------------------------------------------
 Center     Atomic                   Forces (Hartrees/Bohr)
 Number     Number              X              Y              Z
 -------------------------------------------------------------------
      1        6           0.002903647   -0.000131799   -0.000027349
      2        6          -0.002903647    0.000131799    0.000027349
      3        1          -0.002152088    0.000372009    0.000709349
      4        1          -0.002188200   -0.000658201   -0.000119695
      5        1          -0.002149859    0.000615174   -0.000560853
      6        1           0.002149859   -0.000615174    0.000560853
      7        1           0.002188200    0.000658201    0.000119695
      8        1           0.002152088   -0.000372009   -0.000709349
 -------------------------------------------------------------------
 Cartesian Forces:  Max     0.002903647 RMS     0.001422234

 GradGradGradGradGradGradGradGradGradGradGradGradGradGradGradGradGradGrad
 Berny optimization.
 FormGI is forming the generalized inverse of G from B-inverse, IUseBI=4.
 Internal  Forces:  Max     0.003591897 RMS     0.001515830
 Search for a local minimum.
 Step number   1 out of a maximum of   38
 All quantities printed in internal units (Hartrees-Bohrs-Radians)
 Mixed Optimization -- RFO/linear search
 Second derivative matrix not updated -- first step.
 ITU=  0
     Eigenvalues ---    0.00280   0.05575   0.05575   0.05575   0.05575
     Eigenvalues ---    0.16000   0.16000   0.16000   0.16000   0.16000
     Eigenvalues ---    0.16000   0.28809   0.34549   0.34549   0.34549
     Eigenvalues ---    0.34549   0.34550   0.34550
 RFO step:  Lambda=-3.22182439D-04 EMin= 2.79920382D-03
 Linear search not attempted -- first point.
 Iteration  1 RMS(Cart)=  0.01356159 RMS(Int)=  0.00006311
 Iteration  2 RMS(Cart)=  0.00005079 RMS(Int)=  0.00003873
 Iteration  3 RMS(Cart)=  0.00000000 RMS(Int)=  0.00003873
 ClnCor:  largest displacement from symmetrization is 3.16D-09 for atom     8.
 Variable       Old X    -DE/DX   Delta X   Delta X   Delta X     New X
                                 (Linear)    (Quad)   (Total)
    R1        2.90402   0.00359   0.00000   0.01245   0.01245   2.91648
    R2        2.06413   0.00146   0.00000   0.00423   0.00423   2.06836
    R3        2.06413   0.00148   0.00000   0.00428   0.00428   2.06840
    R4        2.06412   0.00147   0.00000   0.00425   0.00425   2.06837
    R5        2.06412   0.00147   0.00000   0.00425   0.00425   2.06837
    R6        2.06413   0.00148   0.00000   0.00428   0.00428   2.06840
    R7        2.06413   0.00146   0.00000   0.00423   0.00423   2.06836
    A1        1.92691   0.00177   0.00000   0.01097   0.01091   1.93783
    A2        1.92691   0.00174   0.00000   0.01085   0.01079   1.93770
    A3        1.92691   0.00178   0.00000   0.01112   0.01106   1.93797
    A4        1.89408  -0.00182   0.00000  -0.01138  -0.01144   1.88264
    A5        1.89407  -0.00184   0.00000  -0.01151  -0.01157   1.88251
    A6        1.89408  -0.00181   0.00000  -0.01117  -0.01123   1.88285
    A7        1.92691   0.00178   0.00000   0.01112   0.01106   1.93797
    A8        1.92691   0.00174   0.00000   0.01085   0.01079   1.93770
    A9        1.92691   0.00177   0.00000   0.01097   0.01091   1.93783
   A10        1.89408  -0.00181   0.00000  -0.01117  -0.01123   1.88285
   A11        1.89407  -0.00184   0.00000  -0.01151  -0.01157   1.88251
   A12        1.89408  -0.00182   0.00000  -0.01138  -0.01144   1.88264
    D1        1.04720   0.00001   0.00000   0.00011   0.00011   1.04731
    D2       -1.04719  -0.00001   0.00000  -0.00013  -0.00013  -1.04732
    D3        3.14159   0.00000   0.00000   0.00000   0.00000   3.14159
    D4       -1.04720   0.00001   0.00000   0.00024   0.00024  -1.04696
    D5        3.14159   0.00000   0.00000   0.00000   0.00000   3.14159
    D6        1.04719   0.00001   0.00000   0.00013   0.00013   1.04732
    D7        3.14159   0.00000   0.00000   0.00000   0.00000   3.14159
    D8        1.04720  -0.00001   0.00000  -0.00024  -0.00024   1.04696
    D9       -1.04720  -0.00001   0.00000  -0.00011  -0.00011  -1.04731
         Item               Value     Threshold  Converged?
 Maximum Force            0.003592     0.000450     NO 
 RMS     Force            0.001516     0.000300     NO 
 Maximum Displacement     0.029048     0.001800     NO 
 RMS     Displacement     0.013578     0.001200     NO 
 Predicted change in Energy=-1.613720D-04
 GradGradGradGradGradGradGradGradGradGradGradGradGradGradGradGradGradGrad

                          Input orientation:                          
 ---------------------------------------------------------------------
 Center     Atomic      Atomic             Coordinates (Angstroms)
 Number     Number       Type             X           Y           Z
 ---------------------------------------------------------------------
      1          6           0       -6.390989    0.651214   -0.000044
      2          6           0       -4.849721    0.571416    0.000044
      3          1           0       -6.765991    1.005560    0.965256
      4          1           0       -6.834975   -0.330474   -0.192947
      5          1           0       -6.748751    1.339439   -0.772284
      6          1           0       -4.491959   -0.116809    0.772284
      7          1           0       -4.405735    1.553104    0.192947
      8          1           0       -4.474719    0.217070   -0.965256
 ---------------------------------------------------------------------
                    Distance matrix (angstroms):
                    1          2          3          4          5
     1  C    0.000000
     2  C    1.543332   0.000000
     3  H    1.094528   2.189111   0.000000
     4  H    1.094552   2.189037   1.769513   0.000000
     5  H    1.094533   2.189216   1.769412   1.769654   0.000000
     6  H    2.189216   1.094533   2.543260   2.543039   3.098300
     7  H    2.189037   1.094552   2.543044   3.098062   2.543039
     8  H    2.189111   1.094528   3.098147   2.543044   2.543260
                    6          7          8
     6  H    0.000000
     7  H    1.769654   0.000000
     8  H    1.769412   1.769513   0.000000
 Stoichiometry    C2H6
 Framework group  CI[X(C2H6)]
 Deg. of freedom     9
 Full point group                 CI      NOp   2
 Largest Abelian subgroup         CI      NOp   2
 Largest concise Abelian subgroup CI      NOp   2
                         Standard orientation:                         
 ---------------------------------------------------------------------
 Center     Atomic      Atomic             Coordinates (Angstroms)
 Number     Number       Type             X           Y           Z
 ---------------------------------------------------------------------
      1          6           0       -0.770634    0.039899   -0.000044
      2          6           0        0.770634   -0.039899    0.000044
      3          1           0       -1.145636    0.394245    0.965256
      4          1           0       -1.214620   -0.941789   -0.192947
      5          1           0       -1.128396    0.728124   -0.772284
      6          1           0        1.128396   -0.728124    0.772284
      7          1           0        1.214620    0.941789    0.192947
      8          1           0        1.145636   -0.394245   -0.965256
 ---------------------------------------------------------------------
 Rotational constants (GHZ):     80.0733681     19.7062117     19.7054419
 Standard basis: LANL2DZ (5D, 7F)
 There are    15 symmetry adapted cartesian basis functions of AG  symmetry.
 There are    15 symmetry adapted cartesian basis functions of AU  symmetry.
 There are    15 symmetry adapted basis functions of AG  symmetry.
 There are    15 symmetry adapted basis functions of AU  symmetry.
    30 basis functions,    74 primitive gaussians,    30 cartesian basis functions
     9 alpha electrons        9 beta electrons
       nuclear repulsion energy        42.0061199919 Hartrees.
 NAtoms=    8 NActive=    8 NUniq=    4 SFac= 4.00D+00 NAtFMM=   60 NAOKFM=F Big=F
 Integral buffers will be    131072 words long.
 Raffenetti 2 integral format.
 Two-electron integral symmetry is turned on.
 One-electron integrals computed using PRISM.
   2 Symmetry operations used in ECPInt.
 ECPInt:  NShTT=     253 NPrTT=    1559 LenC2=     254 LenP2D=    1400.
 LDataN:  DoStor=T MaxTD1= 2 Len=   12
 NBasis=    30 RedAO= T EigKep=  6.53D-03  NBF=    15    15
 NBsUse=    30 1.00D-06 EigRej= -1.00D+00 NBFU=    15    15
 Initial guess from the checkpoint file:  "/scr/Gau-22749.chk"
 B after Tr=     0.000000    0.000000    0.000000
         Rot=    1.000000    0.000000    0.000009    0.000007 Ang=   0.00 deg.
 Initial guess orbital symmetries:
       Occupied  (AG) (AU) (AG) (AU) (AU) (AU) (AG) (AG) (AG)
       Virtual   (AG) (AG) (AG) (AG) (AG) (AG) (AG) (AG) (AG) (AG)
                 (AU) (AU) (AU) (AU) (AU) (AU) (AU) (AU) (AU) (AU)
                 (AU)
 ExpMin= 1.15D-01 ExpMax= 4.23D+03 ExpMxC= 1.46D+02 IAcc=1 IRadAn=         1 AccDes= 0.00D+00
 Harris functional with IExCor= 1009 and IRadAn=       1 diagonalized for initial guess.
 HarFok:  IExCor= 1009 AccDes= 0.00D+00 IRadAn=         1 IDoV= 1 UseB2=F ITyADJ=14
 ICtDFT=  3500011 ScaDFX=  1.000000  1.000000  1.000000  1.000000
 FoFCou: FMM=F IPFlag=           0 FMFlag=      100000 FMFlg1=           0
         NFxFlg=           0 DoJE=T BraDBF=F KetDBF=T FulRan=T
         wScrn=  0.000000 ICntrl=     500 IOpCl=  0 I1Cent=   200000004 NGrid=           0
         NMat0=    1 NMatS0=      1 NMatT0=    0 NMatD0=    1 NMtDS0=    0 NMtDT0=    0
 Petite list used in FoFCou.
 Keep R1 ints in memory in symmetry-blocked form, NReq=992247.
 Requested convergence on RMS density matrix=1.00D-08 within 128 cycles.
 Requested convergence on MAX density matrix=1.00D-06.
 Requested convergence on             energy=1.00D-06.
 No special actions if energy rises.
 Integral accuracy reduced to 1.0D-05 until final iterations.
 Initial convergence to 1.0D-05 achieved.  Increase integral accuracy.
 SCF Done:  E(RM062X) =  -79.7644896918     A.U. after   10 cycles
            NFock= 10  Conv=0.34D-08     -V/T= 2.0063
   2 Symmetry operations used in ECPInt.
 ECPInt:  NShTT=     253 NPrTT=    1559 LenC2=     254 LenP2D=    1400.
 LDataN:  DoStor=T MaxTD1= 3 Len=   28
 Calling FoFJK, ICntrl=      2127 FMM=F ISym2X=1 I1Cent= 0 IOpClX= 0 NMat=1 NMatS=1 NMatT=0.
 ***** Axes restored to original set *****
 -------------------------------------------------------------------
 Center     Atomic                   Forces (Hartrees/Bohr)
 Number     Number              X              Y              Z
 -------------------------------------------------------------------
      1        6           0.002779234   -0.000165315   -0.000017957
      2        6          -0.002779234    0.000165315    0.000017957
      3        1          -0.000003742    0.000078432    0.000190394
      4        1          -0.000016535   -0.000196504   -0.000019612
      5        1          -0.000005297    0.000126254   -0.000139743
      6        1           0.000005297   -0.000126254    0.000139743
      7        1           0.000016535    0.000196504    0.000019612
      8        1           0.000003742   -0.000078432   -0.000190394
 -------------------------------------------------------------------
 Cartesian Forces:  Max     0.002779234 RMS     0.000809783

 GradGradGradGradGradGradGradGradGradGradGradGradGradGradGradGradGradGrad
 Berny optimization.
 Using GEDIIS/GDIIS optimizer.
 FormGI is forming the generalized inverse of G from B-inverse, IUseBI=4.
 Internal  Forces:  Max     0.002758102 RMS     0.000529982
 Search for a local minimum.
 Step number   2 out of a maximum of   38
 All quantities printed in internal units (Hartrees-Bohrs-Radians)
 Mixed Optimization -- En-DIIS/RFO-DIIS
 Update second derivatives using D2CorX and points    1    2
 DE= -1.41D-04 DEPred=-1.61D-04 R= 8.74D-01
 TightC=F SS=  1.41D+00  RLast= 4.20D-02 DXNew= 5.0454D-01 1.2587D-01
 Trust test= 8.74D-01 RLast= 4.20D-02 DXMaxT set to 3.00D-01
 ITU=  1  0
 Use linear search instead of GDIIS.
     Eigenvalues ---    0.00280   0.05459   0.05459   0.05461   0.05461
     Eigenvalues ---    0.14483   0.16000   0.16000   0.16000   0.16000
     Eigenvalues ---    0.16000   0.33020   0.34549   0.34549   0.34549
     Eigenvalues ---    0.34550   0.34550   0.37299
 RFO step:  Lambda=-1.81620546D-05 EMin= 2.79920382D-03
 Quartic linear search produced a step of -0.10722.
 Iteration  1 RMS(Cart)=  0.00182481 RMS(Int)=  0.00000405
 Iteration  2 RMS(Cart)=  0.00000008 RMS(Int)=  0.00000405
 ClnCor:  largest displacement from symmetrization is 9.85D-09 for atom     7.
 Variable       Old X    -DE/DX   Delta X   Delta X   Delta X     New X
                                 (Linear)    (Quad)   (Total)
    R1        2.91648  -0.00276  -0.00134  -0.00652  -0.00786   2.90862
    R2        2.06836   0.00019  -0.00045   0.00119   0.00073   2.06909
    R3        2.06840   0.00019  -0.00046   0.00118   0.00072   2.06912
    R4        2.06837   0.00018  -0.00046   0.00116   0.00071   2.06908
    R5        2.06837   0.00018  -0.00046   0.00116   0.00071   2.06908
    R6        2.06840   0.00019  -0.00046   0.00118   0.00072   2.06912
    R7        2.06836   0.00019  -0.00045   0.00119   0.00073   2.06909
    A1        1.93783  -0.00006  -0.00117   0.00138   0.00022   1.93805
    A2        1.93770  -0.00006  -0.00116   0.00143   0.00028   1.93798
    A3        1.93797  -0.00006  -0.00119   0.00143   0.00025   1.93822
    A4        1.88264   0.00007   0.00123  -0.00149  -0.00026   1.88239
    A5        1.88251   0.00006   0.00124  -0.00160  -0.00035   1.88216
    A6        1.88285   0.00007   0.00120  -0.00140  -0.00019   1.88267
    A7        1.93797  -0.00006  -0.00119   0.00143   0.00025   1.93822
    A8        1.93770  -0.00006  -0.00116   0.00143   0.00028   1.93798
    A9        1.93783  -0.00006  -0.00117   0.00138   0.00022   1.93805
   A10        1.88285   0.00007   0.00120  -0.00140  -0.00019   1.88267
   A11        1.88251   0.00006   0.00124  -0.00160  -0.00035   1.88216
   A12        1.88264   0.00007   0.00123  -0.00149  -0.00026   1.88239
    D1        1.04731   0.00001  -0.00001   0.00014   0.00013   1.04744
    D2       -1.04732   0.00000   0.00001  -0.00001   0.00001  -1.04731
    D3        3.14159   0.00000   0.00000   0.00000   0.00000   3.14159
    D4       -1.04696   0.00001  -0.00003   0.00014   0.00012  -1.04684
    D5        3.14159   0.00000   0.00000   0.00000   0.00000   3.14159
    D6        1.04732   0.00000  -0.00001   0.00001  -0.00001   1.04731
    D7        3.14159   0.00000   0.00000   0.00000   0.00000   3.14159
    D8        1.04696  -0.00001   0.00003  -0.00014  -0.00012   1.04684
    D9       -1.04731  -0.00001   0.00001  -0.00014  -0.00013  -1.04744
         Item               Value     Threshold  Converged?
 Maximum Force            0.002758     0.000450     NO 
 RMS     Force            0.000530     0.000300     NO 
 Maximum Displacement     0.003921     0.001800     NO 
 RMS     Displacement     0.001825     0.001200     NO 
 Predicted change in Energy=-1.113614D-05
 GradGradGradGradGradGradGradGradGradGradGradGradGradGradGradGradGradGrad

                          Input orientation:                          
 ---------------------------------------------------------------------
 Center     Atomic      Atomic             Coordinates (Angstroms)
 Number     Number       Type             X           Y           Z
 ---------------------------------------------------------------------
      1          6           0       -6.388914    0.651086   -0.000063
      2          6           0       -4.851796    0.571544    0.000063
      3          1           0       -6.764305    1.005575    0.965473
      4          1           0       -6.833301   -0.330839   -0.192985
      5          1           0       -6.747058    1.339547   -0.772447
      6          1           0       -4.493652   -0.116917    0.772447
      7          1           0       -4.407409    1.553469    0.192985
      8          1           0       -4.476405    0.217055   -0.965473
 ---------------------------------------------------------------------
                    Distance matrix (angstroms):
                    1          2          3          4          5
     1  C    0.000000
     2  C    1.539175   0.000000
     3  H    1.094915   2.185884   0.000000
     4  H    1.094932   2.185847   1.769968   0.000000
     5  H    1.094908   2.186005   1.769802   1.770143   0.000000
     6  H    2.186005   1.094908   2.540298   2.540036   3.096098
     7  H    2.185847   1.094932   2.540056   3.095892   2.540036
     8  H    2.185884   1.094915   3.095932   2.540056   2.540298
                    6          7          8
     6  H    0.000000
     7  H    1.770143   0.000000
     8  H    1.769802   1.769968   0.000000
 Stoichiometry    C2H6
 Framework group  CI[X(C2H6)]
 Deg. of freedom     9
 Full point group                 CI      NOp   2
 Largest Abelian subgroup         CI      NOp   2
 Largest concise Abelian subgroup CI      NOp   2
                         Standard orientation:                         
 ---------------------------------------------------------------------
 Center     Atomic      Atomic             Coordinates (Angstroms)
 Number     Number       Type             X           Y           Z
 ---------------------------------------------------------------------
      1          6           0       -0.768559    0.039771   -0.000063
      2          6           0        0.768559   -0.039771    0.000063
      3          1           0       -1.143950    0.394260    0.965473
      4          1           0       -1.212946   -0.942154   -0.192985
      5          1           0       -1.126703    0.728232   -0.772447
      6          1           0        1.126703   -0.728232    0.772447
      7          1           0        1.212946    0.942154    0.192985
      8          1           0        1.143950   -0.394260   -0.965473
 ---------------------------------------------------------------------
 Rotational constants (GHZ):     80.0331313     19.7827624     19.7816772
 Standard basis: LANL2DZ (5D, 7F)
 There are    15 symmetry adapted cartesian basis functions of AG  symmetry.
 There are    15 symmetry adapted cartesian basis functions of AU  symmetry.
 There are    15 symmetry adapted basis functions of AG  symmetry.
 There are    15 symmetry adapted basis functions of AU  symmetry.
    30 basis functions,    74 primitive gaussians,    30 cartesian basis functions
     9 alpha electrons        9 beta electrons
       nuclear repulsion energy        42.0475683451 Hartrees.
 NAtoms=    8 NActive=    8 NUniq=    4 SFac= 4.00D+00 NAtFMM=   60 NAOKFM=F Big=F
 Integral buffers will be    131072 words long.
 Raffenetti 2 integral format.
 Two-electron integral symmetry is turned on.
 One-electron integrals computed using PRISM.
   2 Symmetry operations used in ECPInt.
 ECPInt:  NShTT=     253 NPrTT=    1559 LenC2=     254 LenP2D=    1400.
 LDataN:  DoStor=T MaxTD1= 2 Len=   12
 NBasis=    30 RedAO= T EigKep=  6.51D-03  NBF=    15    15
 NBsUse=    30 1.00D-06 EigRej= -1.00D+00 NBFU=    15    15
 Initial guess from the checkpoint file:  "/scr/Gau-22749.chk"
 B after Tr=     0.000000    0.000000    0.000000
         Rot=    1.000000    0.000000    0.000004   -0.000004 Ang=   0.00 deg.
 Initial guess orbital symmetries:
       Occupied  (AG) (AU) (AG) (AU) (AU) (AU) (AG) (AG) (AG)
       Virtual   (AG) (AG) (AG) (AG) (AG) (AG) (AG) (AG) (AG) (AG)
                 (AU) (AU) (AU) (AU) (AU) (AU) (AU) (AU) (AU) (AU)
                 (AU)
 Keep R1 ints in memory in symmetry-blocked form, NReq=992247.
 Requested convergence on RMS density matrix=1.00D-08 within 128 cycles.
 Requested convergence on MAX density matrix=1.00D-06.
 Requested convergence on             energy=1.00D-06.
 No special actions if energy rises.
 SCF Done:  E(RM062X) =  -79.7645026032     A.U. after    6 cycles
            NFock=  6  Conv=0.62D-08     -V/T= 2.0063
   2 Symmetry operations used in ECPInt.
 ECPInt:  NShTT=     253 NPrTT=    1559 LenC2=     254 LenP2D=    1400.
 LDataN:  DoStor=T MaxTD1= 3 Len=   28
 Calling FoFJK, ICntrl=      2127 FMM=F ISym2X=1 I1Cent= 0 IOpClX= 0 NMat=1 NMatS=1 NMatT=0.
 ***** Axes restored to original set *****
 -------------------------------------------------------------------
 Center     Atomic                   Forces (Hartrees/Bohr)
 Number     Number              X              Y              Z
 -------------------------------------------------------------------
      1        6           0.000536615   -0.000037212    0.000000485
      2        6          -0.000536615    0.000037212   -0.000000485
      3        1          -0.000030233   -0.000008578   -0.000047376
      4        1          -0.000026039    0.000052770    0.000024261
      5        1          -0.000037546   -0.000040704    0.000040587
      6        1           0.000037546    0.000040704   -0.000040587
      7        1           0.000026039   -0.000052770   -0.000024261
      8        1           0.000030233    0.000008578    0.000047376
 -------------------------------------------------------------------
 Cartesian Forces:  Max     0.000536615 RMS     0.000158466

 GradGradGradGradGradGradGradGradGradGradGradGradGradGradGradGradGradGrad
 Berny optimization.
 Using GEDIIS/GDIIS optimizer.
 FormGI is forming the generalized inverse of G from B-inverse, IUseBI=4.
 Internal  Forces:  Max     0.000443948 RMS     0.000091595
 Search for a local minimum.
 Step number   3 out of a maximum of   38
 All quantities printed in internal units (Hartrees-Bohrs-Radians)
 Mixed Optimization -- En-DIIS/RFO-DIIS
 Swapping is turned off.
 Update second derivatives using D2CorX and points    1    2    3
 DE= -1.29D-05 DEPred=-1.11D-05 R= 1.16D+00
 TightC=F SS=  1.41D+00  RLast= 8.11D-03 DXNew= 5.0454D-01 2.4319D-02
 Trust test= 1.16D+00 RLast= 8.11D-03 DXMaxT set to 3.00D-01
 ITU=  1  1  0
     Eigenvalues ---    0.00280   0.05456   0.05457   0.05458   0.05458
     Eigenvalues ---    0.12975   0.16000   0.16000   0.16000   0.16000
     Eigenvalues ---    0.16000   0.32544   0.34546   0.34549   0.34549
     Eigenvalues ---    0.34550   0.34550   0.34648
 En-DIIS/RFO-DIIS IScMMF=        0 using points:     3    2
 RFO step:  Lambda=-5.04361165D-07.
 DidBck=F Rises=F RFO-DIIS coefs:    1.18449   -0.18449
 Iteration  1 RMS(Cart)=  0.00032012 RMS(Int)=  0.00000017
 Iteration  2 RMS(Cart)=  0.00000020 RMS(Int)=  0.00000009
 ClnCor:  largest displacement from symmetrization is 7.46D-09 for atom     6.
 Variable       Old X    -DE/DX   Delta X   Delta X   Delta X     New X
                                 (Linear)    (Quad)   (Total)
    R1        2.90862  -0.00044  -0.00145  -0.00039  -0.00184   2.90678
    R2        2.06909  -0.00004   0.00014  -0.00019  -0.00005   2.06904
    R3        2.06912  -0.00004   0.00013  -0.00021  -0.00007   2.06905
    R4        2.06908  -0.00004   0.00013  -0.00019  -0.00006   2.06901
    R5        2.06908  -0.00004   0.00013  -0.00019  -0.00006   2.06901
    R6        2.06912  -0.00004   0.00013  -0.00021  -0.00007   2.06905
    R7        2.06909  -0.00004   0.00014  -0.00019  -0.00005   2.06904
    A1        1.93805   0.00005   0.00004   0.00047   0.00051   1.93856
    A2        1.93798   0.00005   0.00005   0.00047   0.00052   1.93850
    A3        1.93822   0.00005   0.00005   0.00046   0.00050   1.93872
    A4        1.88239  -0.00005  -0.00005  -0.00049  -0.00054   1.88185
    A5        1.88216  -0.00005  -0.00006  -0.00050  -0.00056   1.88159
    A6        1.88267  -0.00005  -0.00003  -0.00049  -0.00052   1.88214
    A7        1.93822   0.00005   0.00005   0.00046   0.00050   1.93872
    A8        1.93798   0.00005   0.00005   0.00047   0.00052   1.93850
    A9        1.93805   0.00005   0.00004   0.00047   0.00051   1.93856
   A10        1.88267  -0.00005  -0.00003  -0.00049  -0.00052   1.88214
   A11        1.88216  -0.00005  -0.00006  -0.00050  -0.00056   1.88159
   A12        1.88239  -0.00005  -0.00005  -0.00049  -0.00054   1.88185
    D1        1.04744   0.00000   0.00002   0.00001   0.00003   1.04747
    D2       -1.04731   0.00000   0.00000   0.00001   0.00001  -1.04730
    D3        3.14159   0.00000   0.00000   0.00000   0.00000   3.14159
    D4       -1.04684   0.00000   0.00002   0.00000   0.00002  -1.04682
    D5        3.14159   0.00000   0.00000   0.00000   0.00000   3.14159
    D6        1.04731   0.00000   0.00000  -0.00001  -0.00001   1.04730
    D7        3.14159   0.00000   0.00000   0.00000   0.00000   3.14159
    D8        1.04684   0.00000  -0.00002   0.00000  -0.00002   1.04682
    D9       -1.04744   0.00000  -0.00002  -0.00001  -0.00003  -1.04747
         Item               Value     Threshold  Converged?
 Maximum Force            0.000444     0.000450     YES
 RMS     Force            0.000092     0.000300     YES
 Maximum Displacement     0.000919     0.001800     YES
 RMS     Displacement     0.000320     0.001200     YES
 Predicted change in Energy=-5.708419D-07
 Optimization completed.
    -- Stationary point found.
                           ----------------------------
                           !   Optimized Parameters   !
                           ! (Angstroms and Degrees)  !
 --------------------------                            --------------------------
 ! Name  Definition              Value          Derivative Info.                !
 --------------------------------------------------------------------------------
 ! R1    R(1,2)                  1.5392         -DE/DX =   -0.0004              !
 ! R2    R(1,3)                  1.0949         -DE/DX =    0.0                 !
 ! R3    R(1,4)                  1.0949         -DE/DX =    0.0                 !
 ! R4    R(1,5)                  1.0949         -DE/DX =    0.0                 !
 ! R5    R(2,6)                  1.0949         -DE/DX =    0.0                 !
 ! R6    R(2,7)                  1.0949         -DE/DX =    0.0                 !
 ! R7    R(2,8)                  1.0949         -DE/DX =    0.0                 !
 ! A1    A(2,1,3)              111.0419         -DE/DX =    0.0                 !
 ! A2    A(2,1,4)              111.0379         -DE/DX =    0.0                 !
 ! A3    A(2,1,5)              111.052          -DE/DX =    0.0                 !
 ! A4    A(3,1,4)              107.8527         -DE/DX =   -0.0001              !
 ! A5    A(3,1,5)              107.8397         -DE/DX =   -0.0001              !
 ! A6    A(4,1,5)              107.8688         -DE/DX =    0.0                 !
 ! A7    A(1,2,6)              111.052          -DE/DX =    0.0                 !
 ! A8    A(1,2,7)              111.0379         -DE/DX =    0.0                 !
 ! A9    A(1,2,8)              111.0419         -DE/DX =    0.0                 !
 ! A10   A(6,2,7)              107.8688         -DE/DX =    0.0                 !
 ! A11   A(6,2,8)              107.8397         -DE/DX =   -0.0001              !
 ! A12   A(7,2,8)              107.8527         -DE/DX =   -0.0001              !
 ! D1    D(3,1,2,6)             60.0137         -DE/DX =    0.0                 !
 ! D2    D(3,1,2,7)            -60.0066         -DE/DX =    0.0                 !
 ! D3    D(3,1,2,8)            180.0            -DE/DX =    0.0                 !
 ! D4    D(4,1,2,6)            -59.9797         -DE/DX =    0.0                 !
 ! D5    D(4,1,2,7)            180.0            -DE/DX =    0.0                 !
 ! D6    D(4,1,2,8)             60.0066         -DE/DX =    0.0                 !
 ! D7    D(5,1,2,6)            180.0            -DE/DX =    0.0                 !
 ! D8    D(5,1,2,7)             59.9797         -DE/DX =    0.0                 !
 ! D9    D(5,1,2,8)            -60.0137         -DE/DX =    0.0                 !
 --------------------------------------------------------------------------------
 GradGradGradGradGradGradGradGradGradGradGradGradGradGradGradGradGradGrad

                          Input orientation:                          
 ---------------------------------------------------------------------
 Center     Atomic      Atomic             Coordinates (Angstroms)
 Number     Number       Type             X           Y           Z
 ---------------------------------------------------------------------
      1          6           0       -6.388914    0.651086   -0.000063
      2          6           0       -4.851796    0.571544    0.000063
      3          1           0       -6.764305    1.005575    0.965473
      4          1           0       -6.833301   -0.330839   -0.192985
      5          1           0       -6.747058    1.339547   -0.772447
      6          1           0       -4.493652   -0.116917    0.772447
      7          1           0       -4.407409    1.553469    0.192985
      8          1           0       -4.476405    0.217055   -0.965473
 ---------------------------------------------------------------------
                    Distance matrix (angstroms):
                    1          2          3          4          5
     1  C    0.000000
     2  C    1.539175   0.000000
     3  H    1.094915   2.185884   0.000000
     4  H    1.094932   2.185847   1.769968   0.000000
     5  H    1.094908   2.186005   1.769802   1.770143   0.000000
     6  H    2.186005   1.094908   2.540298   2.540036   3.096098
     7  H    2.185847   1.094932   2.540056   3.095892   2.540036
     8  H    2.185884   1.094915   3.095932   2.540056   2.540298
                    6          7          8
     6  H    0.000000
     7  H    1.770143   0.000000
     8  H    1.769802   1.769968   0.000000
 Stoichiometry    C2H6
 Framework group  CI[X(C2H6)]
 Deg. of freedom     9
 Full point group                 CI      NOp   2
 Largest Abelian subgroup         CI      NOp   2
 Largest concise Abelian subgroup CI      NOp   2
                         Standard orientation:                         
 ---------------------------------------------------------------------
 Center     Atomic      Atomic             Coordinates (Angstroms)
 Number     Number       Type             X           Y           Z
 ---------------------------------------------------------------------
      1          6           0       -0.768559    0.039771   -0.000063
      2          6           0        0.768559   -0.039771    0.000063
      3          1           0       -1.143950    0.394260    0.965473
      4          1           0       -1.212946   -0.942154   -0.192985
      5          1           0       -1.126703    0.728232   -0.772447
      6          1           0        1.126703   -0.728232    0.772447
      7          1           0        1.212946    0.942154    0.192985
      8          1           0        1.143950   -0.394260   -0.965473
 ---------------------------------------------------------------------
 Rotational constants (GHZ):     80.0331313     19.7827624     19.7816772

 **********************************************************************

            Population analysis using the SCF density.

 **********************************************************************

 Orbital symmetries:
       Occupied  (AG) (AU) (AG) (AU) (AU) (AU) (AG) (AG) (AG)
       Virtual   (AU) (AG) (AG) (AG) (AU) (AU) (AU) (AG) (AU) (AU)
                 (AG) (AG) (AU) (AG) (AU) (AG) (AU) (AU) (AG) (AG)
                 (AU)
 The electronic state is 1-AG.
 Alpha  occ. eigenvalues --  -10.53094 -10.53062  -0.84131  -0.69651  -0.49773
 Alpha  occ. eigenvalues --   -0.49766  -0.42053  -0.39917  -0.39909
 Alpha virt. eigenvalues --    0.16970   0.18174   0.23398   0.23402   0.26428
 Alpha virt. eigenvalues --    0.26432   0.29000   0.33884   0.34065   0.34069
 Alpha virt. eigenvalues --    0.38636   0.38642   0.55164   0.97153   1.10335
 Alpha virt. eigenvalues --    1.15307   1.18164   1.18172   1.20490   1.20503
 Alpha virt. eigenvalues --    1.39788
          Condensed to atoms (all electrons):
               1          2          3          4          5          6
     1  C    5.262221   0.299714   0.384635   0.384635   0.384642  -0.040232
     2  C    0.299714   5.262221  -0.040257  -0.040260  -0.040232   0.384642
     3  H    0.384635  -0.040257   0.503370  -0.022109  -0.022134  -0.002418
     4  H    0.384635  -0.040260  -0.022109   0.503301  -0.022079  -0.002413
     5  H    0.384642  -0.040232  -0.022134  -0.022079   0.503314   0.002963
     6  H   -0.040232   0.384642  -0.002418  -0.002413   0.002963   0.503314
     7  H   -0.040260   0.384635  -0.002417   0.002965  -0.002413  -0.022079
     8  H   -0.040257   0.384635   0.002965  -0.002417  -0.002418  -0.022134
               7          8
     1  C   -0.040260  -0.040257
     2  C    0.384635   0.384635
     3  H   -0.002417   0.002965
     4  H    0.002965  -0.002417
     5  H   -0.002413  -0.002418
     6  H   -0.022079  -0.022134
     7  H    0.503301  -0.022109
     8  H   -0.022109   0.503370
 Mulliken charges:
               1
     1  C   -0.595099
     2  C   -0.595099
     3  H    0.198365
     4  H    0.198376
     5  H    0.198358
     6  H    0.198358
     7  H    0.198376
     8  H    0.198365
 Sum of Mulliken charges =   0.00000
 Mulliken charges with hydrogens summed into heavy atoms:
               1
     1  C    0.000000
     2  C    0.000000
 Electronic spatial extent (au):  <R**2>=            109.8284
 Charge=              0.0000 electrons
 Dipole moment (field-independent basis, Debye):
    X=              0.0000    Y=              0.0000    Z=              0.0000  Tot=              0.0000
 Quadrupole moment (field-independent basis, Debye-Ang):
   XX=            -15.1921   YY=            -14.6670   ZZ=            -14.6682
   XY=              0.0267   XZ=             -0.0002   YZ=             -0.0001
 Traceless Quadrupole moment (field-independent basis, Debye-Ang):
   XX=             -0.3497   YY=              0.1754   ZZ=              0.1742
   XY=              0.0267   XZ=             -0.0002   YZ=             -0.0001
 Octapole moment (field-independent basis, Debye-Ang**2):
  XXX=              0.0000  YYY=              0.0000  ZZZ=              0.0000  XYY=              0.0000
  XXY=              0.0000  XXZ=              0.0000  XZZ=              0.0000  YZZ=              0.0000
  YYZ=              0.0000  XYZ=              0.0000
 Hexadecapole moment (field-independent basis, Debye-Ang**3):
 XXXX=            -93.3390 YYYY=            -28.5739 ZZZZ=            -28.1490 XXXY=              1.9248
 XXXZ=              0.0051 YYYX=              2.7750 YYYZ=             -0.1321 ZZZX=             -0.8545
 ZZZY=              0.0444 XXYY=            -18.6867 XXZZ=            -18.9145 YYZZ=             -9.2706
 XXYZ=              0.0875 YYXZ=              0.8459 ZZXY=             -0.8389
 N-N= 4.204756834510D+01 E-N=-2.681080184157D+02  KE= 7.926857347596D+01
 Symmetry AG   KE= 4.114384110253D+01
 Symmetry AU   KE= 3.812473237343D+01
 1\1\GINC-N0288\FOpt\RM062X\LANL2DZ\C2H6\GDAVIDS3\21-Feb-2017\0\\#n M06
 2X/LANL2DZ Opt\\Ethane M062X LANL2DZ\\0,1\C,-6.3889140721,0.6510857474
 ,-0.0000626776\C,-4.8517959279,0.5715442526,0.0000626776\H,-6.76430496
 06,1.0055746578,0.9654725719\H,-6.8333012954,-0.3308393101,-0.19298473
 14\H,-6.7470581894,1.3395468189,-0.7724472754\H,-4.4936518106,-0.11691
 68189,0.7724472754\H,-4.4074087046,1.5534693101,0.1929847314\H,-4.4764
 050394,0.2170553422,-0.9654725719\\Version=ES64L-G09RevE.01\State=1-AG
 \HF=-79.7645026\RMSD=6.192e-09\RMSF=1.585e-04\Dipole=0.,0.,0.\Quadrupo
 le=-0.2599597,0.1304154,0.1295443,0.0198731,-0.00018,-0.0000771\PG=CI 
 [X(C2H6)]\\@


 Discoveries are often made by not following instructions,
 by going off the main road, by trying the untried.
 -- Frank Tyger
 Job cpu time:       0 days  0 hours  0 minutes 35.1 seconds.
 File lengths (MBytes):  RWF=      5 Int=      0 D2E=      0 Chk=      1 Scr=      1
 Normal termination of Gaussian 09 at Tue Feb 21 17:20:00 2017.
