 Entering Gaussian System, Link 0=g09
 Input=Ethane_M062X_3-21G.com
 Output=Ethane_M062X_3-21G.log
 Initial command:
 /sw/contrib/gaussian/g09/E01/g09/l1.exe "/scr/Gau-9460.inp" -scrdir="/scr/"
 Entering Link 1 = /sw/contrib/gaussian/g09/E01/g09/l1.exe PID=      9461.
  
 Copyright (c) 1988,1990,1992,1993,1995,1998,2003,2009,2015,
            Gaussian, Inc.  All Rights Reserved.
  
 This is part of the Gaussian(R) 09 program.  It is based on
 the Gaussian(R) 03 system (copyright 2003, Gaussian, Inc.),
 the Gaussian(R) 98 system (copyright 1998, Gaussian, Inc.),
 the Gaussian(R) 94 system (copyright 1995, Gaussian, Inc.),
 the Gaussian 92(TM) system (copyright 1992, Gaussian, Inc.),
 the Gaussian 90(TM) system (copyright 1990, Gaussian, Inc.),
 the Gaussian 88(TM) system (copyright 1988, Gaussian, Inc.),
 the Gaussian 86(TM) system (copyright 1986, Carnegie Mellon
 University), and the Gaussian 82(TM) system (copyright 1983,
 Carnegie Mellon University). Gaussian is a federally registered
 trademark of Gaussian, Inc.
  
 This software contains proprietary and confidential information,
 including trade secrets, belonging to Gaussian, Inc.
  
 This software is provided under written license and may be
 used, copied, transmitted, or stored only in accord with that
 written license.
  
 The following legend is applicable only to US Government
 contracts under FAR:
  
                    RESTRICTED RIGHTS LEGEND
  
 Use, reproduction and disclosure by the US Government is
 subject to restrictions as set forth in subparagraphs (a)
 and (c) of the Commercial Computer Software - Restricted
 Rights clause in FAR 52.227-19.
  
 Gaussian, Inc.
 340 Quinnipiac St., Bldg. 40, Wallingford CT 06492
  
  
 ---------------------------------------------------------------
 Warning -- This program may not be used in any manner that
 competes with the business of Gaussian, Inc. or will provide
 assistance to any competitor of Gaussian, Inc.  The licensee
 of this program is prohibited from giving any competitor of
 Gaussian, Inc. access to this program.  By using this program,
 the user acknowledges that Gaussian, Inc. is engaged in the
 business of creating and licensing software in the field of
 computational chemistry and represents and warrants to the
 licensee that it is not a competitor of Gaussian, Inc. and that
 it will not use this program in any manner prohibited above.
 ---------------------------------------------------------------
  

 Cite this work as:
 Gaussian 09, Revision E.01,
 M. J. Frisch, G. W. Trucks, H. B. Schlegel, G. E. Scuseria, 
 M. A. Robb, J. R. Cheeseman, G. Scalmani, V. Barone, B. Mennucci, 
 G. A. Petersson, H. Nakatsuji, M. Caricato, X. Li, H. P. Hratchian, 
 A. F. Izmaylov, J. Bloino, G. Zheng, J. L. Sonnenberg, M. Hada, 
 M. Ehara, K. Toyota, R. Fukuda, J. Hasegawa, M. Ishida, T. Nakajima, 
 Y. Honda, O. Kitao, H. Nakai, T. Vreven, J. A. Montgomery, Jr., 
 J. E. Peralta, F. Ogliaro, M. Bearpark, J. J. Heyd, E. Brothers, 
 K. N. Kudin, V. N. Staroverov, T. Keith, R. Kobayashi, J. Normand, 
 K. Raghavachari, A. Rendell, J. C. Burant, S. S. Iyengar, J. Tomasi, 
 M. Cossi, N. Rega, J. M. Millam, M. Klene, J. E. Knox, J. B. Cross, 
 V. Bakken, C. Adamo, J. Jaramillo, R. Gomperts, R. E. Stratmann, 
 O. Yazyev, A. J. Austin, R. Cammi, C. Pomelli, J. W. Ochterski, 
 R. L. Martin, K. Morokuma, V. G. Zakrzewski, G. A. Voth, 
 P. Salvador, J. J. Dannenberg, S. Dapprich, A. D. Daniels, 
 O. Farkas, J. B. Foresman, J. V. Ortiz, J. Cioslowski, 
 and D. J. Fox, Gaussian, Inc., Wallingford CT, 2013.
 
 ******************************************
 Gaussian 09:  ES64L-G09RevE.01 30-Nov-2015
                21-Feb-2017 
 ******************************************
 %NProcShared=8
 Will use up to    8 processors via shared memory.
 ------------------
 #n M062X/3-21G Opt
 ------------------
 1/14=-1,18=20,19=15,26=3,38=1/1,3;
 2/9=110,12=2,17=6,18=5,40=1/2;
 3/5=5,11=2,16=1,25=1,30=1,71=1,74=-55/1,2,3;
 4//1;
 5/5=2,38=5/2;
 6/7=2,8=2,9=2,10=2,28=1/1;
 7//1,2,3,16;
 1/14=-1,18=20,19=15,26=3/3(2);
 2/9=110/2;
 99//99;
 2/9=110/2;
 3/5=5,11=2,16=1,25=1,30=1,71=1,74=-55/1,2,3;
 4/5=5,16=3,69=1/1;
 5/5=2,38=5/2;
 7//1,2,3,16;
 1/14=-1,18=20,19=15,26=3/3(-5);
 2/9=110/2;
 6/7=2,8=2,9=2,10=2,19=2,28=1/1;
 99/9=1/99;
 ------------------
 Ethane M062X 3-21G
 ------------------
 Symbolic Z-matrix:
 Charge =  0 Multiplicity = 1
 C                    -6.3877    0.65101   0. 
 C                    -4.85301   0.57162   0. 
 H                    -6.75069   1.00542   0.96733 
 H                    -6.81994  -0.3333   -0.19339 
 H                    -6.73338   1.33993  -0.77394 
 H                    -4.50733  -0.1173    0.77394 
 H                    -4.42077   1.55593   0.19339 
 H                    -4.49002   0.21721  -0.96733 
 

 GradGradGradGradGradGradGradGradGradGradGradGradGradGradGradGradGradGrad
 Berny optimization.
 Initialization pass.
                           ----------------------------
                           !    Initial Parameters    !
                           ! (Angstroms and Degrees)  !
 --------------------------                            --------------------------
 ! Name  Definition              Value          Derivative Info.                !
 --------------------------------------------------------------------------------
 ! R1    R(1,2)                  1.5367         estimate D2E/DX2                !
 ! R2    R(1,3)                  1.0923         estimate D2E/DX2                !
 ! R3    R(1,4)                  1.0923         estimate D2E/DX2                !
 ! R4    R(1,5)                  1.0923         estimate D2E/DX2                !
 ! R5    R(2,6)                  1.0923         estimate D2E/DX2                !
 ! R6    R(2,7)                  1.0923         estimate D2E/DX2                !
 ! R7    R(2,8)                  1.0923         estimate D2E/DX2                !
 ! A1    A(2,1,3)              110.4041         estimate D2E/DX2                !
 ! A2    A(2,1,4)              110.4039         estimate D2E/DX2                !
 ! A3    A(2,1,5)              110.4038         estimate D2E/DX2                !
 ! A4    A(3,1,4)              108.5227         estimate D2E/DX2                !
 ! A5    A(3,1,5)              108.5224         estimate D2E/DX2                !
 ! A6    A(4,1,5)              108.5227         estimate D2E/DX2                !
 ! A7    A(1,2,6)              110.4038         estimate D2E/DX2                !
 ! A8    A(1,2,7)              110.4039         estimate D2E/DX2                !
 ! A9    A(1,2,8)              110.4041         estimate D2E/DX2                !
 ! A10   A(6,2,7)              108.5227         estimate D2E/DX2                !
 ! A11   A(6,2,8)              108.5224         estimate D2E/DX2                !
 ! A12   A(7,2,8)              108.5227         estimate D2E/DX2                !
 ! D1    D(3,1,2,6)             60.0002         estimate D2E/DX2                !
 ! D2    D(3,1,2,7)            -59.9998         estimate D2E/DX2                !
 ! D3    D(3,1,2,8)            180.0            estimate D2E/DX2                !
 ! D4    D(4,1,2,6)            -60.0            estimate D2E/DX2                !
 ! D5    D(4,1,2,7)            180.0            estimate D2E/DX2                !
 ! D6    D(4,1,2,8)             59.9998         estimate D2E/DX2                !
 ! D7    D(5,1,2,6)            180.0            estimate D2E/DX2                !
 ! D8    D(5,1,2,7)             60.0            estimate D2E/DX2                !
 ! D9    D(5,1,2,8)            -60.0002         estimate D2E/DX2                !
 --------------------------------------------------------------------------------
 Trust Radius=3.00D-01 FncErr=1.00D-07 GrdErr=1.00D-06
 Number of steps in this run=     38 maximum allowed number of steps=    100.
 GradGradGradGradGradGradGradGradGradGradGradGradGradGradGradGradGradGrad

                          Input orientation:                          
 ---------------------------------------------------------------------
 Center     Atomic      Atomic             Coordinates (Angstroms)
 Number     Number       Type             X           Y           Z
 ---------------------------------------------------------------------
      1          6           0       -6.387700    0.651010    0.000000
      2          6           0       -4.853010    0.571620    0.000000
      3          1           0       -6.750690    1.005420    0.967330
      4          1           0       -6.819940   -0.333300   -0.193390
      5          1           0       -6.733380    1.339930   -0.773940
      6          1           0       -4.507330   -0.117300    0.773940
      7          1           0       -4.420770    1.555930    0.193390
      8          1           0       -4.490020    0.217210   -0.967330
 ---------------------------------------------------------------------
                    Distance matrix (angstroms):
                    1          2          3          4          5
     1  C    0.000000
     2  C    1.536742   0.000000
     3  H    1.092289   2.173729   0.000000
     4  H    1.092290   2.173728   1.773200   0.000000
     5  H    1.092286   2.173724   1.773194   1.773198   0.000000
     6  H    2.173724   1.092286   2.516061   2.516058   3.078108
     7  H    2.173728   1.092290   2.516063   3.078117   2.516058
     8  H    2.173729   1.092289   3.078118   2.516063   2.516061
                    6          7          8
     6  H    0.000000
     7  H    1.773198   0.000000
     8  H    1.773194   1.773200   0.000000
 This structure is nearly, but not quite of a higher symmetry.
 Consider Symm=Loose if the higher symmetry is desired.
 Stoichiometry    C2H6
 Framework group  CI[X(C2H6)]
 Deg. of freedom     9
 Full point group                 CI      NOp   2
 Largest Abelian subgroup         CI      NOp   2
 Largest concise Abelian subgroup CI      NOp   2
                         Standard orientation:                         
 ---------------------------------------------------------------------
 Center     Atomic      Atomic             Coordinates (Angstroms)
 Number     Number       Type             X           Y           Z
 ---------------------------------------------------------------------
      1          6           0       -0.767345    0.039695    0.000000
      2          6           0        0.767345   -0.039695    0.000000
      3          1           0       -1.130335    0.394105    0.967330
      4          1           0       -1.199585   -0.944615   -0.193390
      5          1           0       -1.113025    0.728615   -0.773940
      6          1           0        1.113025   -0.728615    0.773940
      7          1           0        1.199585    0.944615    0.193390
      8          1           0        1.130335   -0.394105   -0.967330
 ---------------------------------------------------------------------
 Rotational constants (GHZ):     79.7421566     19.9565168     19.9564985
 Standard basis: 3-21G (6D, 7F)
 There are    15 symmetry adapted cartesian basis functions of AG  symmetry.
 There are    15 symmetry adapted cartesian basis functions of AU  symmetry.
 There are    15 symmetry adapted basis functions of AG  symmetry.
 There are    15 symmetry adapted basis functions of AU  symmetry.
    30 basis functions,    48 primitive gaussians,    30 cartesian basis functions
     9 alpha electrons        9 beta electrons
       nuclear repulsion energy        42.1695770054 Hartrees.
 NAtoms=    8 NActive=    8 NUniq=    4 SFac= 4.00D+00 NAtFMM=   60 NAOKFM=F Big=F
 Integral buffers will be    131072 words long.
 Raffenetti 2 integral format.
 Two-electron integral symmetry is turned on.
 One-electron integrals computed using PRISM.
 NBasis=    30 RedAO= T EigKep=  1.33D-02  NBF=    15    15
 NBsUse=    30 1.00D-06 EigRej= -1.00D+00 NBFU=    15    15
 ExpMin= 1.83D-01 ExpMax= 1.72D+02 ExpMxC= 1.72D+02 IAcc=1 IRadAn=         1 AccDes= 0.00D+00
 Harris functional with IExCor= 1009 and IRadAn=       1 diagonalized for initial guess.
 HarFok:  IExCor= 1009 AccDes= 0.00D+00 IRadAn=         1 IDoV= 1 UseB2=F ITyADJ=14
 ICtDFT=  3500011 ScaDFX=  1.000000  1.000000  1.000000  1.000000
 FoFCou: FMM=F IPFlag=           0 FMFlag=      100000 FMFlg1=           0
         NFxFlg=           0 DoJE=T BraDBF=F KetDBF=T FulRan=T
         wScrn=  0.000000 ICntrl=     500 IOpCl=  0 I1Cent=   200000004 NGrid=           0
         NMat0=    1 NMatS0=      1 NMatT0=    0 NMatD0=    1 NMtDS0=    0 NMtDT0=    0
 Petite list used in FoFCou.
 Initial guess orbital symmetries:
       Occupied  (AU) (AG) (AG) (AU) (AU) (AU) (AG) (AG) (AG)
       Virtual   (AG) (AU) (AU) (AU) (AU) (AG) (AG) (AU) (AU) (AG)
                 (AU) (AG) (AG) (AG) (AU) (AU) (AG) (AG) (AU) (AG)
                 (AU)
 The electronic state of the initial guess is 1-AG.
 Keep R1 ints in memory in symmetry-blocked form, NReq=992183.
 Requested convergence on RMS density matrix=1.00D-08 within 128 cycles.
 Requested convergence on MAX density matrix=1.00D-06.
 Requested convergence on             energy=1.00D-06.
 No special actions if energy rises.
 Integral accuracy reduced to 1.0D-05 until final iterations.
 Initial convergence to 1.0D-05 achieved.  Increase integral accuracy.
 SCF Done:  E(RM062X) =  -79.3421858491     A.U. after   11 cycles
            NFock= 11  Conv=0.58D-08     -V/T= 2.0086

 **********************************************************************

            Population analysis using the SCF density.

 **********************************************************************

 Orbital symmetries:
       Occupied  (AU) (AG) (AG) (AU) (AU) (AU) (AG) (AG) (AG)
       Virtual   (AG) (AU) (AU) (AU) (AG) (AG) (AU) (AU) (AU) (AG)
                 (AU) (AG) (AG) (AG) (AU) (AU) (AG) (AG) (AU) (AG)
                 (AU)
 The electronic state is 1-AG.
 Alpha  occ. eigenvalues --  -10.46904 -10.46847  -0.84409  -0.69486  -0.50033
 Alpha  occ. eigenvalues --   -0.50031  -0.41934  -0.39937  -0.39935
 Alpha virt. eigenvalues --    0.17765   0.23220   0.23222   0.23832   0.26198
 Alpha virt. eigenvalues --    0.26200   0.29841   0.74086   0.74088   0.79224
 Alpha virt. eigenvalues --    0.85367   0.89654   0.89658   1.05843   1.14790
 Alpha virt. eigenvalues --    1.14802   1.14814   1.14831   1.21561   1.69929
 Alpha virt. eigenvalues --    2.03922
          Condensed to atoms (all electrons):
               1          2          3          4          5          6
     1  C    5.312020   0.271721   0.376093   0.376087   0.376103  -0.040954
     2  C    0.271721   5.312020  -0.040960  -0.040958  -0.040954   0.376103
     3  H    0.376093  -0.040960   0.523161  -0.026569  -0.026573  -0.002357
     4  H    0.376087  -0.040958  -0.026569   0.523134  -0.026569  -0.002356
     5  H    0.376103  -0.040954  -0.026573  -0.026569   0.523083   0.003206
     6  H   -0.040954   0.376103  -0.002357  -0.002356   0.003206   0.523083
     7  H   -0.040958   0.376087  -0.002356   0.003206  -0.002356  -0.026569
     8  H   -0.040960   0.376093   0.003207  -0.002356  -0.002357  -0.026573
               7          8
     1  C   -0.040958  -0.040960
     2  C    0.376087   0.376093
     3  H   -0.002356   0.003207
     4  H    0.003206  -0.002356
     5  H   -0.002356  -0.002357
     6  H   -0.026569  -0.026573
     7  H    0.523134  -0.026569
     8  H   -0.026569   0.523161
 Mulliken charges:
               1
     1  C   -0.589153
     2  C   -0.589153
     3  H    0.196354
     4  H    0.196382
     5  H    0.196417
     6  H    0.196417
     7  H    0.196382
     8  H    0.196354
 Sum of Mulliken charges =   0.00000
 Mulliken charges with hydrogens summed into heavy atoms:
               1
     1  C    0.000000
     2  C    0.000000
 Electronic spatial extent (au):  <R**2>=            109.4364
 Charge=              0.0000 electrons
 Dipole moment (field-independent basis, Debye):
    X=              0.0000    Y=              0.0000    Z=              0.0000  Tot=              0.0000
 Quadrupole moment (field-independent basis, Debye-Ang):
   XX=            -15.3319   YY=            -14.7857   ZZ=            -14.7847
   XY=              0.0284   XZ=              0.0004   YZ=             -0.0002
 Traceless Quadrupole moment (field-independent basis, Debye-Ang):
   XX=             -0.3645   YY=              0.1817   ZZ=              0.1827
   XY=              0.0284   XZ=              0.0004   YZ=             -0.0002
 Octapole moment (field-independent basis, Debye-Ang**2):
  XXX=              0.0000  YYY=              0.0000  ZZZ=              0.0000  XYY=              0.0000
  XXY=              0.0000  XXZ=              0.0000  XZZ=              0.0000  YZZ=              0.0000
  YYZ=              0.0000  XYZ=              0.0000
 Hexadecapole moment (field-independent basis, Debye-Ang**3):
 XXXX=            -91.5118 YYYY=            -28.0504 ZZZZ=            -27.6445 XXXY=              1.8681
 XXXZ=              0.0070 YYYX=              2.6809 YYYZ=             -0.1242 ZZZX=             -0.8001
 ZZZY=              0.0410 XXYY=            -18.4499 XXZZ=            -18.6617 YYZZ=             -9.1105
 XXYZ=              0.0822 YYXZ=              0.7946 ZZXY=             -0.7618
 N-N= 4.216957700541D+01 E-N=-2.671618776268D+02  KE= 7.866204161029D+01
 Symmetry AG   KE= 4.082106001315D+01
 Symmetry AU   KE= 3.784098159714D+01
 Calling FoFJK, ICntrl=      2127 FMM=F ISym2X=1 I1Cent= 0 IOpClX= 0 NMat=1 NMatS=1 NMatT=0.
 ***** Axes restored to original set *****
 -------------------------------------------------------------------
 Center     Atomic                   Forces (Hartrees/Bohr)
 Number     Number              X              Y              Z
 -------------------------------------------------------------------
      1        6          -0.000128221    0.000071167   -0.000126149
      2        6           0.000128221   -0.000071167    0.000126149
      3        1          -0.001575677    0.000315256    0.000572466
      4        1          -0.001638479   -0.000603437   -0.000036166
      5        1          -0.001587837    0.000468709   -0.000411831
      6        1           0.001587837   -0.000468709    0.000411831
      7        1           0.001638479    0.000603437    0.000036166
      8        1           0.001575677   -0.000315256   -0.000572466
 -------------------------------------------------------------------
 Cartesian Forces:  Max     0.001638479 RMS     0.000861581

 GradGradGradGradGradGradGradGradGradGradGradGradGradGradGradGradGradGrad
 Berny optimization.
 FormGI is forming the generalized inverse of G from B-inverse, IUseBI=4.
 Internal  Forces:  Max     0.004936634 RMS     0.001370440
 Search for a local minimum.
 Step number   1 out of a maximum of   38
 All quantities printed in internal units (Hartrees-Bohrs-Radians)
 Mixed Optimization -- RFO/linear search
 Second derivative matrix not updated -- first step.
 ITU=  0
     Eigenvalues ---    0.00280   0.05575   0.05575   0.05575   0.05575
     Eigenvalues ---    0.16000   0.16000   0.16000   0.16000   0.16000
     Eigenvalues ---    0.16000   0.28809   0.34549   0.34549   0.34549
     Eigenvalues ---    0.34549   0.34550   0.34550
 RFO step:  Lambda=-2.34544012D-04 EMin= 2.79920382D-03
 Linear search not attempted -- first point.
 Iteration  1 RMS(Cart)=  0.01191302 RMS(Int)=  0.00003462
 Iteration  2 RMS(Cart)=  0.00002661 RMS(Int)=  0.00002076
 Iteration  3 RMS(Cart)=  0.00000000 RMS(Int)=  0.00002076
 ClnCor:  largest displacement from symmetrization is 1.05D-08 for atom     8.
 Variable       Old X    -DE/DX   Delta X   Delta X   Delta X     New X
                                 (Linear)    (Quad)   (Total)
    R1        2.90402   0.00494   0.00000   0.01712   0.01712   2.92114
    R2        2.06413   0.00113   0.00000   0.00326   0.00326   2.06739
    R3        2.06413   0.00120   0.00000   0.00346   0.00346   2.06759
    R4        2.06412   0.00110   0.00000   0.00318   0.00318   2.06730
    R5        2.06412   0.00110   0.00000   0.00318   0.00318   2.06730
    R6        2.06413   0.00120   0.00000   0.00346   0.00346   2.06759
    R7        2.06413   0.00113   0.00000   0.00326   0.00326   2.06739
    A1        1.92691   0.00127   0.00000   0.00777   0.00774   1.93466
    A2        1.92691   0.00126   0.00000   0.00796   0.00793   1.93484
    A3        1.92691   0.00131   0.00000   0.00826   0.00823   1.93514
    A4        1.89408  -0.00133   0.00000  -0.00846  -0.00849   1.88559
    A5        1.89407  -0.00135   0.00000  -0.00856  -0.00859   1.88548
    A6        1.89408  -0.00130   0.00000  -0.00779  -0.00782   1.88626
    A7        1.92691   0.00131   0.00000   0.00826   0.00823   1.93514
    A8        1.92691   0.00126   0.00000   0.00796   0.00793   1.93484
    A9        1.92691   0.00127   0.00000   0.00777   0.00774   1.93466
   A10        1.89408  -0.00130   0.00000  -0.00779  -0.00782   1.88626
   A11        1.89407  -0.00135   0.00000  -0.00856  -0.00859   1.88548
   A12        1.89408  -0.00133   0.00000  -0.00846  -0.00849   1.88559
    D1        1.04720   0.00002   0.00000   0.00034   0.00034   1.04754
    D2       -1.04719  -0.00002   0.00000  -0.00041  -0.00041  -1.04760
    D3        3.14159   0.00000   0.00000   0.00000   0.00000   3.14159
    D4       -1.04720   0.00004   0.00000   0.00075   0.00075  -1.04645
    D5        3.14159   0.00000   0.00000   0.00000   0.00000   3.14159
    D6        1.04719   0.00002   0.00000   0.00041   0.00041   1.04760
    D7        3.14159   0.00000   0.00000   0.00000   0.00000   3.14159
    D8        1.04720  -0.00004   0.00000  -0.00075  -0.00075   1.04645
    D9       -1.04720  -0.00002   0.00000  -0.00034  -0.00034  -1.04754
         Item               Value     Threshold  Converged?
 Maximum Force            0.004937     0.000450     NO 
 RMS     Force            0.001370     0.000300     NO 
 Maximum Displacement     0.025292     0.001800     NO 
 RMS     Displacement     0.011921     0.001200     NO 
 Predicted change in Energy=-1.174077D-04
 GradGradGradGradGradGradGradGradGradGradGradGradGradGradGradGradGradGrad

                          Input orientation:                          
 ---------------------------------------------------------------------
 Center     Atomic      Atomic             Coordinates (Angstroms)
 Number     Number       Type             X           Y           Z
 ---------------------------------------------------------------------
      1          6           0       -6.392223    0.651256   -0.000168
      2          6           0       -4.848487    0.571374    0.000168
      3          1           0       -6.763961    1.005653    0.965792
      4          1           0       -6.833115   -0.331359   -0.193003
      5          1           0       -6.746764    1.339872   -0.772742
      6          1           0       -4.493946   -0.117242    0.772742
      7          1           0       -4.407595    1.553989    0.193003
      8          1           0       -4.476749    0.216977   -0.965792
 ---------------------------------------------------------------------
                    Distance matrix (angstroms):
                    1          2          3          4          5
     1  C    0.000000
     2  C    1.545802   0.000000
     3  H    1.094014   2.188623   0.000000
     4  H    1.094122   2.188834   1.770647   0.000000
     5  H    1.093966   2.188935   1.770451   1.771036   0.000000
     6  H    2.188935   1.093966   2.539908   2.539729   3.096270
     7  H    2.188834   1.094122   2.539751   3.096238   2.539729
     8  H    2.188623   1.094014   3.095863   2.539751   2.539908
                    6          7          8
     6  H    0.000000
     7  H    1.771036   0.000000
     8  H    1.770451   1.770647   0.000000
 Stoichiometry    C2H6
 Framework group  CI[X(C2H6)]
 Deg. of freedom     9
 Full point group                 CI      NOp   2
 Largest Abelian subgroup         CI      NOp   2
 Largest concise Abelian subgroup CI      NOp   2
                         Standard orientation:                         
 ---------------------------------------------------------------------
 Center     Atomic      Atomic             Coordinates (Angstroms)
 Number     Number       Type             X           Y           Z
 ---------------------------------------------------------------------
      1          6           0       -0.771868    0.039941   -0.000168
      2          6           0        0.771868   -0.039941    0.000168
      3          1           0       -1.143606    0.394338    0.965792
      4          1           0       -1.212760   -0.942674   -0.193003
      5          1           0       -1.126409    0.728557   -0.772742
      6          1           0        1.126409   -0.728557    0.772742
      7          1           0        1.212760    0.942674    0.193003
      8          1           0        1.143606   -0.394338   -0.965792
 ---------------------------------------------------------------------
 Rotational constants (GHZ):     79.9661864     19.6895753     19.6876935
 Standard basis: 3-21G (6D, 7F)
 There are    15 symmetry adapted cartesian basis functions of AG  symmetry.
 There are    15 symmetry adapted cartesian basis functions of AU  symmetry.
 There are    15 symmetry adapted basis functions of AG  symmetry.
 There are    15 symmetry adapted basis functions of AU  symmetry.
    30 basis functions,    48 primitive gaussians,    30 cartesian basis functions
     9 alpha electrons        9 beta electrons
       nuclear repulsion energy        41.9964690027 Hartrees.
 NAtoms=    8 NActive=    8 NUniq=    4 SFac= 4.00D+00 NAtFMM=   60 NAOKFM=F Big=F
 Integral buffers will be    131072 words long.
 Raffenetti 2 integral format.
 Two-electron integral symmetry is turned on.
 One-electron integrals computed using PRISM.
 NBasis=    30 RedAO= T EigKep=  1.37D-02  NBF=    15    15
 NBsUse=    30 1.00D-06 EigRej= -1.00D+00 NBFU=    15    15
 Initial guess from the checkpoint file:  "/scr/Gau-9461.chk"
 B after Tr=     0.000000    0.000000    0.000000
         Rot=    1.000000    0.000002    0.000035    0.000002 Ang=   0.00 deg.
 Initial guess orbital symmetries:
       Occupied  (AU) (AG) (AG) (AU) (AU) (AU) (AG) (AG) (AG)
       Virtual   (AG) (AG) (AG) (AG) (AG) (AG) (AG) (AG) (AG) (AG)
                 (AU) (AU) (AU) (AU) (AU) (AU) (AU) (AU) (AU) (AU)
                 (AU)
 ExpMin= 1.83D-01 ExpMax= 1.72D+02 ExpMxC= 1.72D+02 IAcc=1 IRadAn=         1 AccDes= 0.00D+00
 Harris functional with IExCor= 1009 and IRadAn=       1 diagonalized for initial guess.
 HarFok:  IExCor= 1009 AccDes= 0.00D+00 IRadAn=         1 IDoV= 1 UseB2=F ITyADJ=14
 ICtDFT=  3500011 ScaDFX=  1.000000  1.000000  1.000000  1.000000
 FoFCou: FMM=F IPFlag=           0 FMFlag=      100000 FMFlg1=           0
         NFxFlg=           0 DoJE=T BraDBF=F KetDBF=T FulRan=T
         wScrn=  0.000000 ICntrl=     500 IOpCl=  0 I1Cent=   200000004 NGrid=           0
         NMat0=    1 NMatS0=      1 NMatT0=    0 NMatD0=    1 NMtDS0=    0 NMtDT0=    0
 Petite list used in FoFCou.
 Keep R1 ints in memory in symmetry-blocked form, NReq=992183.
 Requested convergence on RMS density matrix=1.00D-08 within 128 cycles.
 Requested convergence on MAX density matrix=1.00D-06.
 Requested convergence on             energy=1.00D-06.
 No special actions if energy rises.
 Integral accuracy reduced to 1.0D-05 until final iterations.
 Initial convergence to 1.0D-05 achieved.  Increase integral accuracy.
 SCF Done:  E(RM062X) =  -79.3422741912     A.U. after   10 cycles
            NFock= 10  Conv=0.57D-08     -V/T= 2.0091
 Calling FoFJK, ICntrl=      2127 FMM=F ISym2X=1 I1Cent= 0 IOpClX= 0 NMat=1 NMatS=1 NMatT=0.
 ***** Axes restored to original set *****
 -------------------------------------------------------------------
 Center     Atomic                   Forces (Hartrees/Bohr)
 Number     Number              X              Y              Z
 -------------------------------------------------------------------
      1        6           0.001261011   -0.000088359   -0.000025473
      2        6          -0.001261011    0.000088359    0.000025473
      3        1           0.000225258    0.000074922    0.000140427
      4        1           0.000205606   -0.000157221    0.000033177
      5        1           0.000210287    0.000058260   -0.000093448
      6        1          -0.000210287   -0.000058260    0.000093448
      7        1          -0.000205606    0.000157221   -0.000033177
      8        1          -0.000225258   -0.000074922   -0.000140427
 -------------------------------------------------------------------
 Cartesian Forces:  Max     0.001261011 RMS     0.000387204

 GradGradGradGradGradGradGradGradGradGradGradGradGradGradGradGradGradGrad
 Berny optimization.
 Using GEDIIS/GDIIS optimizer.
 FormGI is forming the generalized inverse of G from B-inverse, IUseBI=4.
 Internal  Forces:  Max     0.001905430 RMS     0.000396633
 Search for a local minimum.
 Step number   2 out of a maximum of   38
 All quantities printed in internal units (Hartrees-Bohrs-Radians)
 Mixed Optimization -- En-DIIS/RFO-DIIS
 Update second derivatives using D2CorX and points    1    2
 DE= -8.83D-05 DEPred=-1.17D-04 R= 7.52D-01
 TightC=F SS=  1.41D+00  RLast= 3.40D-02 DXNew= 5.0454D-01 1.0197D-01
 Trust test= 7.52D-01 RLast= 3.40D-02 DXMaxT set to 3.00D-01
 ITU=  1  0
 Use linear search instead of GDIIS.
     Eigenvalues ---    0.00280   0.05487   0.05489   0.05494   0.05494
     Eigenvalues ---    0.15999   0.16000   0.16000   0.16000   0.16000
     Eigenvalues ---    0.16717   0.33613   0.34545   0.34549   0.34549
     Eigenvalues ---    0.34549   0.34550   0.35173
 RFO step:  Lambda=-2.55935544D-06 EMin= 2.79920382D-03
 Quartic linear search produced a step of -0.19581.
 Iteration  1 RMS(Cart)=  0.00237703 RMS(Int)=  0.00000367
 Iteration  2 RMS(Cart)=  0.00000100 RMS(Int)=  0.00000357
 Iteration  3 RMS(Cart)=  0.00000000 RMS(Int)=  0.00000357
 ClnCor:  largest displacement from symmetrization is 1.04D-08 for atom     7.
 Variable       Old X    -DE/DX   Delta X   Delta X   Delta X     New X
                                 (Linear)    (Quad)   (Total)
    R1        2.92114  -0.00191  -0.00335  -0.00182  -0.00517   2.91597
    R2        2.06739   0.00006  -0.00064   0.00081   0.00018   2.06756
    R3        2.06759   0.00005  -0.00068   0.00083   0.00016   2.06775
    R4        2.06730   0.00004  -0.00062   0.00075   0.00013   2.06742
    R5        2.06730   0.00004  -0.00062   0.00075   0.00013   2.06742
    R6        2.06759   0.00005  -0.00068   0.00083   0.00016   2.06775
    R7        2.06739   0.00006  -0.00064   0.00081   0.00018   2.06756
    A1        1.93466  -0.00024  -0.00152   0.00030  -0.00121   1.93345
    A2        1.93484  -0.00024  -0.00155   0.00041  -0.00114   1.93370
    A3        1.93514  -0.00025  -0.00161   0.00042  -0.00119   1.93395
    A4        1.88559   0.00026   0.00166  -0.00044   0.00123   1.88682
    A5        1.88548   0.00025   0.00168  -0.00055   0.00114   1.88662
    A6        1.88626   0.00027   0.00153  -0.00020   0.00134   1.88760
    A7        1.93514  -0.00025  -0.00161   0.00042  -0.00119   1.93395
    A8        1.93484  -0.00024  -0.00155   0.00041  -0.00114   1.93370
    A9        1.93466  -0.00024  -0.00152   0.00030  -0.00121   1.93345
   A10        1.88626   0.00027   0.00153  -0.00020   0.00134   1.88760
   A11        1.88548   0.00025   0.00168  -0.00055   0.00114   1.88662
   A12        1.88559   0.00026   0.00166  -0.00044   0.00123   1.88682
    D1        1.04754   0.00001  -0.00007   0.00021   0.00015   1.04769
    D2       -1.04760   0.00000   0.00008  -0.00008   0.00000  -1.04761
    D3        3.14159   0.00000   0.00000   0.00000   0.00000   3.14159
    D4       -1.04645   0.00001  -0.00015   0.00030   0.00015  -1.04630
    D5        3.14159   0.00000   0.00000   0.00000   0.00000   3.14159
    D6        1.04760   0.00000  -0.00008   0.00008   0.00000   1.04761
    D7        3.14159   0.00000   0.00000   0.00000   0.00000   3.14159
    D8        1.04645  -0.00001   0.00015  -0.00030  -0.00015   1.04630
    D9       -1.04754  -0.00001   0.00007  -0.00021  -0.00015  -1.04769
         Item               Value     Threshold  Converged?
 Maximum Force            0.001905     0.000450     NO 
 RMS     Force            0.000397     0.000300     NO 
 Maximum Displacement     0.004864     0.001800     NO 
 RMS     Displacement     0.002378     0.001200     NO 
 Predicted change in Energy=-6.701265D-06
 GradGradGradGradGradGradGradGradGradGradGradGradGradGradGradGradGradGrad

                          Input orientation:                          
 ---------------------------------------------------------------------
 Center     Atomic      Atomic             Coordinates (Angstroms)
 Number     Number       Type             X           Y           Z
 ---------------------------------------------------------------------
      1          6           0       -6.390858    0.651159   -0.000191
      2          6           0       -4.849852    0.571471    0.000191
      3          1           0       -6.761421    1.005712    0.966269
      4          1           0       -6.830604   -0.332049   -0.193083
      5          1           0       -6.744190    1.340121   -0.773106
      6          1           0       -4.496520   -0.117491    0.773106
      7          1           0       -4.410106    1.554679    0.193083
      8          1           0       -4.479289    0.216918   -0.966269
 ---------------------------------------------------------------------
                    Distance matrix (angstroms):
                    1          2          3          4          5
     1  C    0.000000
     2  C    1.543065   0.000000
     3  H    1.094106   2.185399   0.000000
     4  H    1.094204   2.185654   1.771578   0.000000
     5  H    1.094034   2.185710   1.771313   1.772018   0.000000
     6  H    2.185710   1.094034   2.535483   2.535252   3.093125
     7  H    2.185654   1.094204   2.535323   3.093166   2.535252
     8  H    2.185399   1.094106   3.092738   2.535323   2.535483
                    6          7          8
     6  H    0.000000
     7  H    1.772018   0.000000
     8  H    1.771313   1.771578   0.000000
 Stoichiometry    C2H6
 Framework group  CI[X(C2H6)]
 Deg. of freedom     9
 Full point group                 CI      NOp   2
 Largest Abelian subgroup         CI      NOp   2
 Largest concise Abelian subgroup CI      NOp   2
                         Standard orientation:                         
 ---------------------------------------------------------------------
 Center     Atomic      Atomic             Coordinates (Angstroms)
 Number     Number       Type             X           Y           Z
 ---------------------------------------------------------------------
      1          6           0       -0.770503    0.039844   -0.000191
      2          6           0        0.770503   -0.039844    0.000191
      3          1           0       -1.141066    0.394397    0.966269
      4          1           0       -1.210249   -0.943364   -0.193083
      5          1           0       -1.123835    0.728806   -0.773106
      6          1           0        1.123835   -0.728806    0.773106
      7          1           0        1.210249    0.943364    0.193083
      8          1           0        1.141066   -0.394397   -0.966269
 ---------------------------------------------------------------------
 Rotational constants (GHZ):     79.8827062     19.7537630     19.7514973
 Standard basis: 3-21G (6D, 7F)
 There are    15 symmetry adapted cartesian basis functions of AG  symmetry.
 There are    15 symmetry adapted cartesian basis functions of AU  symmetry.
 There are    15 symmetry adapted basis functions of AG  symmetry.
 There are    15 symmetry adapted basis functions of AU  symmetry.
    30 basis functions,    48 primitive gaussians,    30 cartesian basis functions
     9 alpha electrons        9 beta electrons
       nuclear repulsion energy        42.0315943684 Hartrees.
 NAtoms=    8 NActive=    8 NUniq=    4 SFac= 4.00D+00 NAtFMM=   60 NAOKFM=F Big=F
 Integral buffers will be    131072 words long.
 Raffenetti 2 integral format.
 Two-electron integral symmetry is turned on.
 One-electron integrals computed using PRISM.
 NBasis=    30 RedAO= T EigKep=  1.36D-02  NBF=    15    15
 NBsUse=    30 1.00D-06 EigRej= -1.00D+00 NBFU=    15    15
 Initial guess from the checkpoint file:  "/scr/Gau-9461.chk"
 B after Tr=     0.000000    0.000000    0.000000
         Rot=    1.000000    0.000000    0.000005   -0.000005 Ang=   0.00 deg.
 Initial guess orbital symmetries:
       Occupied  (AU) (AG) (AG) (AU) (AU) (AU) (AG) (AG) (AG)
       Virtual   (AG) (AG) (AG) (AG) (AG) (AG) (AG) (AG) (AG) (AG)
                 (AU) (AU) (AU) (AU) (AU) (AU) (AU) (AU) (AU) (AU)
                 (AU)
 Keep R1 ints in memory in symmetry-blocked form, NReq=992183.
 Requested convergence on RMS density matrix=1.00D-08 within 128 cycles.
 Requested convergence on MAX density matrix=1.00D-06.
 Requested convergence on             energy=1.00D-06.
 No special actions if energy rises.
 SCF Done:  E(RM062X) =  -79.3422812419     A.U. after    6 cycles
            NFock=  6  Conv=0.71D-08     -V/T= 2.0090
 Calling FoFJK, ICntrl=      2127 FMM=F ISym2X=1 I1Cent= 0 IOpClX= 0 NMat=1 NMatS=1 NMatT=0.
 ***** Axes restored to original set *****
 -------------------------------------------------------------------
 Center     Atomic                   Forces (Hartrees/Bohr)
 Number     Number              X              Y              Z
 -------------------------------------------------------------------
      1        6           0.000285097   -0.000022104    0.000006821
      2        6          -0.000285097    0.000022104   -0.000006821
      3        1          -0.000020116    0.000029762   -0.000005677
      4        1          -0.000028858    0.000005365    0.000055038
      5        1          -0.000043154   -0.000030817    0.000002237
      6        1           0.000043154    0.000030817   -0.000002237
      7        1           0.000028858   -0.000005365   -0.000055038
      8        1           0.000020116   -0.000029762    0.000005677
 -------------------------------------------------------------------
 Cartesian Forces:  Max     0.000285097 RMS     0.000086528

 GradGradGradGradGradGradGradGradGradGradGradGradGradGradGradGradGradGrad
 Berny optimization.
 Using GEDIIS/GDIIS optimizer.
 FormGI is forming the generalized inverse of G from B-inverse, IUseBI=4.
 Internal  Forces:  Max     0.000193632 RMS     0.000042539
 Search for a local minimum.
 Step number   3 out of a maximum of   38
 All quantities printed in internal units (Hartrees-Bohrs-Radians)
 Mixed Optimization -- En-DIIS/RFO-DIIS
 Swapping is turned off.
 Update second derivatives using D2CorX and points    1    2    3
 DE= -7.05D-06 DEPred=-6.70D-06 R= 1.05D+00
 TightC=F SS=  1.41D+00  RLast= 6.67D-03 DXNew= 5.0454D-01 2.0019D-02
 Trust test= 1.05D+00 RLast= 6.67D-03 DXMaxT set to 3.00D-01
 ITU=  1  1  0
     Eigenvalues ---    0.00280   0.05498   0.05501   0.05506   0.05506
     Eigenvalues ---    0.15999   0.16000   0.16000   0.16000   0.16000
     Eigenvalues ---    0.17479   0.31172   0.33812   0.34549   0.34549
     Eigenvalues ---    0.34549   0.34550   0.34552
 En-DIIS/RFO-DIIS IScMMF=        0 using points:     3    2
 RFO step:  Lambda=-1.07344061D-07.
 DidBck=F Rises=F RFO-DIIS coefs:    1.04031   -0.04031
 Iteration  1 RMS(Cart)=  0.00012303 RMS(Int)=  0.00000004
 Iteration  2 RMS(Cart)=  0.00000003 RMS(Int)=  0.00000003
 ClnCor:  largest displacement from symmetrization is 6.73D-10 for atom     7.
 Variable       Old X    -DE/DX   Delta X   Delta X   Delta X     New X
                                 (Linear)    (Quad)   (Total)
    R1        2.91597  -0.00019  -0.00021  -0.00053  -0.00074   2.91523
    R2        2.06756   0.00000   0.00001   0.00002   0.00002   2.06758
    R3        2.06775   0.00000   0.00001   0.00000   0.00001   2.06775
    R4        2.06742   0.00000   0.00001   0.00001   0.00002   2.06744
    R5        2.06742   0.00000   0.00001   0.00001   0.00002   2.06744
    R6        2.06775   0.00000   0.00001   0.00000   0.00001   2.06775
    R7        2.06756   0.00000   0.00001   0.00002   0.00002   2.06758
    A1        1.93345   0.00004  -0.00005   0.00028   0.00023   1.93368
    A2        1.93370   0.00003  -0.00005   0.00026   0.00021   1.93391
    A3        1.93395   0.00003  -0.00005   0.00026   0.00021   1.93416
    A4        1.88682  -0.00003   0.00005  -0.00029  -0.00024   1.88658
    A5        1.88662  -0.00004   0.00005  -0.00030  -0.00025   1.88637
    A6        1.88760  -0.00003   0.00005  -0.00025  -0.00019   1.88740
    A7        1.93395   0.00003  -0.00005   0.00026   0.00021   1.93416
    A8        1.93370   0.00003  -0.00005   0.00026   0.00021   1.93391
    A9        1.93345   0.00004  -0.00005   0.00028   0.00023   1.93368
   A10        1.88760  -0.00003   0.00005  -0.00025  -0.00019   1.88740
   A11        1.88662  -0.00004   0.00005  -0.00030  -0.00025   1.88637
   A12        1.88682  -0.00003   0.00005  -0.00029  -0.00024   1.88658
    D1        1.04769   0.00000   0.00001   0.00002   0.00003   1.04772
    D2       -1.04761   0.00000   0.00000  -0.00001  -0.00001  -1.04761
    D3        3.14159   0.00000   0.00000   0.00000   0.00000   3.14159
    D4       -1.04630   0.00000   0.00001   0.00003   0.00003  -1.04626
    D5        3.14159   0.00000   0.00000   0.00000   0.00000   3.14159
    D6        1.04761   0.00000   0.00000   0.00001   0.00001   1.04761
    D7        3.14159   0.00000   0.00000   0.00000   0.00000   3.14159
    D8        1.04630   0.00000  -0.00001  -0.00003  -0.00003   1.04626
    D9       -1.04769   0.00000  -0.00001  -0.00002  -0.00003  -1.04772
         Item               Value     Threshold  Converged?
 Maximum Force            0.000194     0.000450     YES
 RMS     Force            0.000043     0.000300     YES
 Maximum Displacement     0.000371     0.001800     YES
 RMS     Displacement     0.000123     0.001200     YES
 Predicted change in Energy=-1.160500D-07
 Optimization completed.
    -- Stationary point found.
                           ----------------------------
                           !   Optimized Parameters   !
                           ! (Angstroms and Degrees)  !
 --------------------------                            --------------------------
 ! Name  Definition              Value          Derivative Info.                !
 --------------------------------------------------------------------------------
 ! R1    R(1,2)                  1.5431         -DE/DX =   -0.0002              !
 ! R2    R(1,3)                  1.0941         -DE/DX =    0.0                 !
 ! R3    R(1,4)                  1.0942         -DE/DX =    0.0                 !
 ! R4    R(1,5)                  1.094          -DE/DX =    0.0                 !
 ! R5    R(2,6)                  1.094          -DE/DX =    0.0                 !
 ! R6    R(2,7)                  1.0942         -DE/DX =    0.0                 !
 ! R7    R(2,8)                  1.0941         -DE/DX =    0.0                 !
 ! A1    A(2,1,3)              110.7784         -DE/DX =    0.0                 !
 ! A2    A(2,1,4)              110.7928         -DE/DX =    0.0                 !
 ! A3    A(2,1,5)              110.8074         -DE/DX =    0.0                 !
 ! A4    A(3,1,4)              108.1068         -DE/DX =    0.0                 !
 ! A5    A(3,1,5)              108.0955         -DE/DX =    0.0                 !
 ! A6    A(4,1,5)              108.1513         -DE/DX =    0.0                 !
 ! A7    A(1,2,6)              110.8074         -DE/DX =    0.0                 !
 ! A8    A(1,2,7)              110.7928         -DE/DX =    0.0                 !
 ! A9    A(1,2,8)              110.7784         -DE/DX =    0.0                 !
 ! A10   A(6,2,7)              108.1513         -DE/DX =    0.0                 !
 ! A11   A(6,2,8)              108.0955         -DE/DX =    0.0                 !
 ! A12   A(7,2,8)              108.1068         -DE/DX =    0.0                 !
 ! D1    D(3,1,2,6)             60.0281         -DE/DX =    0.0                 !
 ! D2    D(3,1,2,7)            -60.0234         -DE/DX =    0.0                 !
 ! D3    D(3,1,2,8)            180.0            -DE/DX =    0.0                 !
 ! D4    D(4,1,2,6)            -59.9485         -DE/DX =    0.0                 !
 ! D5    D(4,1,2,7)            180.0            -DE/DX =    0.0                 !
 ! D6    D(4,1,2,8)             60.0234         -DE/DX =    0.0                 !
 ! D7    D(5,1,2,6)            180.0            -DE/DX =    0.0                 !
 ! D8    D(5,1,2,7)             59.9485         -DE/DX =    0.0                 !
 ! D9    D(5,1,2,8)            -60.0281         -DE/DX =    0.0                 !
 --------------------------------------------------------------------------------
 GradGradGradGradGradGradGradGradGradGradGradGradGradGradGradGradGradGrad

                          Input orientation:                          
 ---------------------------------------------------------------------
 Center     Atomic      Atomic             Coordinates (Angstroms)
 Number     Number       Type             X           Y           Z
 ---------------------------------------------------------------------
      1          6           0       -6.390858    0.651159   -0.000191
      2          6           0       -4.849852    0.571471    0.000191
      3          1           0       -6.761421    1.005712    0.966269
      4          1           0       -6.830604   -0.332049   -0.193083
      5          1           0       -6.744190    1.340121   -0.773106
      6          1           0       -4.496520   -0.117491    0.773106
      7          1           0       -4.410106    1.554679    0.193083
      8          1           0       -4.479289    0.216918   -0.966269
 ---------------------------------------------------------------------
                    Distance matrix (angstroms):
                    1          2          3          4          5
     1  C    0.000000
     2  C    1.543065   0.000000
     3  H    1.094106   2.185399   0.000000
     4  H    1.094204   2.185654   1.771578   0.000000
     5  H    1.094034   2.185710   1.771313   1.772018   0.000000
     6  H    2.185710   1.094034   2.535483   2.535252   3.093125
     7  H    2.185654   1.094204   2.535323   3.093166   2.535252
     8  H    2.185399   1.094106   3.092738   2.535323   2.535483
                    6          7          8
     6  H    0.000000
     7  H    1.772018   0.000000
     8  H    1.771313   1.771578   0.000000
 Stoichiometry    C2H6
 Framework group  CI[X(C2H6)]
 Deg. of freedom     9
 Full point group                 CI      NOp   2
 Largest Abelian subgroup         CI      NOp   2
 Largest concise Abelian subgroup CI      NOp   2
                         Standard orientation:                         
 ---------------------------------------------------------------------
 Center     Atomic      Atomic             Coordinates (Angstroms)
 Number     Number       Type             X           Y           Z
 ---------------------------------------------------------------------
      1          6           0       -0.770503    0.039844   -0.000191
      2          6           0        0.770503   -0.039844    0.000191
      3          1           0       -1.141066    0.394397    0.966269
      4          1           0       -1.210249   -0.943364   -0.193083
      5          1           0       -1.123835    0.728806   -0.773106
      6          1           0        1.123835   -0.728806    0.773106
      7          1           0        1.210249    0.943364    0.193083
      8          1           0        1.141066   -0.394397   -0.966269
 ---------------------------------------------------------------------
 Rotational constants (GHZ):     79.8827062     19.7537630     19.7514973

 **********************************************************************

            Population analysis using the SCF density.

 **********************************************************************

 Orbital symmetries:
       Occupied  (AU) (AG) (AG) (AU) (AU) (AU) (AG) (AG) (AG)
       Virtual   (AG) (AU) (AU) (AU) (AG) (AG) (AU) (AU) (AU) (AG)
                 (AU) (AG) (AG) (AG) (AG) (AG) (AU) (AU) (AU) (AG)
                 (AU)
 The electronic state is 1-AG.
 Alpha  occ. eigenvalues --  -10.47028 -10.46973  -0.84190  -0.69587  -0.49838
 Alpha  occ. eigenvalues --   -0.49825  -0.42019  -0.39928  -0.39913
 Alpha virt. eigenvalues --    0.17823   0.23105   0.23109   0.23592   0.26221
 Alpha virt. eigenvalues --    0.26233   0.29701   0.73885   0.73895   0.79767
 Alpha virt. eigenvalues --    0.85007   0.90036   0.90070   1.05824   1.14380
 Alpha virt. eigenvalues --    1.14411   1.14727   1.14748   1.21228   1.69646
 Alpha virt. eigenvalues --    2.03352
          Condensed to atoms (all electrons):
               1          2          3          4          5          6
     1  C    5.306714   0.274886   0.375363   0.375394   0.375420  -0.039660
     2  C    0.274886   5.306714  -0.039715  -0.039685  -0.039660   0.375420
     3  H    0.375363  -0.039715   0.523590  -0.026992  -0.027024  -0.002247
     4  H    0.375394  -0.039685  -0.026992   0.523443  -0.026934  -0.002238
     5  H    0.375420  -0.039660  -0.027024  -0.026934   0.523338   0.003049
     6  H   -0.039660   0.375420  -0.002247  -0.002238   0.003049   0.523338
     7  H   -0.039685   0.375394  -0.002245   0.003051  -0.002238  -0.026934
     8  H   -0.039715   0.375363   0.003057  -0.002245  -0.002247  -0.027024
               7          8
     1  C   -0.039685  -0.039715
     2  C    0.375394   0.375363
     3  H   -0.002245   0.003057
     4  H    0.003051  -0.002245
     5  H   -0.002238  -0.002247
     6  H   -0.026934  -0.027024
     7  H    0.523443  -0.026992
     8  H   -0.026992   0.523590
 Mulliken charges:
               1
     1  C   -0.588717
     2  C   -0.588717
     3  H    0.196213
     4  H    0.196207
     5  H    0.196296
     6  H    0.196296
     7  H    0.196207
     8  H    0.196213
 Sum of Mulliken charges =   0.00000
 Mulliken charges with hydrogens summed into heavy atoms:
               1
     1  C    0.000000
     2  C    0.000000
 Electronic spatial extent (au):  <R**2>=            110.1141
 Charge=              0.0000 electrons
 Dipole moment (field-independent basis, Debye):
    X=              0.0000    Y=              0.0000    Z=              0.0000  Tot=              0.0000
 Quadrupole moment (field-independent basis, Debye-Ang):
   XX=            -15.2334   YY=            -14.8171   ZZ=            -14.8204
   XY=              0.0209   XZ=              0.0004   YZ=             -0.0012
 Traceless Quadrupole moment (field-independent basis, Debye-Ang):
   XX=             -0.2764   YY=              0.1399   ZZ=              0.1365
   XY=              0.0209   XZ=              0.0004   YZ=             -0.0012
 Octapole moment (field-independent basis, Debye-Ang**2):
  XXX=              0.0000  YYY=              0.0000  ZZZ=              0.0000  XYY=              0.0000
  XXY=              0.0000  XXZ=              0.0000  XZZ=              0.0000  YZZ=              0.0000
  YYZ=              0.0000  XYZ=              0.0000
 Hexadecapole moment (field-independent basis, Debye-Ang**3):
 XXXX=            -92.2132 YYYY=            -28.1155 ZZZZ=            -27.7027 XXXY=              1.8851
 XXXZ=              0.0035 YYYX=              2.7040 YYYZ=             -0.1258 ZZZX=             -0.8102
 ZZZY=              0.0414 XXYY=            -18.5572 XXZZ=            -18.7747 YYZZ=             -9.1297
 XXYZ=              0.0812 YYXZ=              0.8000 ZZXY=             -0.7674
 N-N= 4.203159436842D+01 E-N=-2.668645671943D+02  KE= 7.863328219555D+01
 Symmetry AG   KE= 4.079854224378D+01
 Symmetry AU   KE= 3.783473995177D+01
 1\1\GINC-N0286\FOpt\RM062X\3-21G\C2H6\GDAVIDS3\21-Feb-2017\0\\#n M062X
 /3-21G Opt\\Ethane M062X 3-21G\\0,1\C,-6.3908581922,0.6511591497,-0.00
 01905141\C,-4.8498518078,0.5714708503,0.0001905141\H,-6.7614208298,1.0
 057120843,0.9662691589\H,-6.8306036225,-0.3320493564,-0.1930833544\H,-
 6.7441902263,1.3401212124,-0.7731055507\H,-4.4965197737,-0.1174912124,
 0.7731055507\H,-4.4101063775,1.5546793564,0.1930833544\H,-4.4792891702
 ,0.2169179157,-0.9662691589\\Version=ES64L-G09RevE.01\State=1-AG\HF=-7
 9.3422812\RMSD=7.056e-09\RMSF=8.653e-05\Dipole=0.,0.,0.\Quadrupole=-0.
 2055121,0.1040014,0.1015107,0.0155111,0.0002772,-0.0008815\PG=CI [X(C2
 H6)]\\@


 THE WORLD IS NOT A HAMBURGER - YOU CAN'T HAVE IT YOUR WAY.
 Job cpu time:       0 days  0 hours  0 minutes 45.3 seconds.
 File lengths (MBytes):  RWF=      5 Int=      0 D2E=      0 Chk=      1 Scr=      1
 Normal termination of Gaussian 09 at Tue Feb 21 17:29:13 2017.
