 Entering Gaussian System, Link 0=g09
 Input=PAM_FOR_3.com
 Output=PAM_FOR_3.log
 Initial command:
 /gscratch/pfaendtner/codes/G09/g09/l1.exe /gscratch/pfaendtner/wesley/gaussian/Gau-2127.inp -scrdir=/gscratch/pfaendtner/wesley/gaussian/
 Entering Link 1 = /gscratch/pfaendtner/codes/G09/g09/l1.exe PID=      2128.
  
 Copyright (c) 1988,1990,1992,1993,1995,1998,2003,2009, Gaussian, Inc.
                  All Rights Reserved.
  
 This is part of the Gaussian(R) 09 program.  It is based on
 the Gaussian(R) 03 system (copyright 2003, Gaussian, Inc.),
 the Gaussian(R) 98 system (copyright 1998, Gaussian, Inc.),
 the Gaussian(R) 94 system (copyright 1995, Gaussian, Inc.),
 the Gaussian 92(TM) system (copyright 1992, Gaussian, Inc.),
 the Gaussian 90(TM) system (copyright 1990, Gaussian, Inc.),
 the Gaussian 88(TM) system (copyright 1988, Gaussian, Inc.),
 the Gaussian 86(TM) system (copyright 1986, Carnegie Mellon
 University), and the Gaussian 82(TM) system (copyright 1983,
 Carnegie Mellon University). Gaussian is a federally registered
 trademark of Gaussian, Inc.
  
 This software contains proprietary and confidential information,
 including trade secrets, belonging to Gaussian, Inc.
  
 This software is provided under written license and may be
 used, copied, transmitted, or stored only in accord with that
 written license.
  
 The following legend is applicable only to US Government
 contracts under FAR:
  
                    RESTRICTED RIGHTS LEGEND
  
 Use, reproduction and disclosure by the US Government is
 subject to restrictions as set forth in subparagraphs (a)
 and (c) of the Commercial Computer Software - Restricted
 Rights clause in FAR 52.227-19.
  
 Gaussian, Inc.
 340 Quinnipiac St., Bldg. 40, Wallingford CT 06492
  
  
 ---------------------------------------------------------------
 Warning -- This program may not be used in any manner that
 competes with the business of Gaussian, Inc. or will provide
 assistance to any competitor of Gaussian, Inc.  The licensee
 of this program is prohibited from giving any competitor of
 Gaussian, Inc. access to this program.  By using this program,
 the user acknowledges that Gaussian, Inc. is engaged in the
 business of creating and licensing software in the field of
 computational chemistry and represents and warrants to the
 licensee that it is not a competitor of Gaussian, Inc. and that
 it will not use this program in any manner prohibited above.
 ---------------------------------------------------------------
  

 Cite this work as:
 Gaussian 09, Revision A.02,
 M. J. Frisch, G. W. Trucks, H. B. Schlegel, G. E. Scuseria, 
 M. A. Robb, J. R. Cheeseman, G. Scalmani, V. Barone, B. Mennucci, 
 G. A. Petersson, H. Nakatsuji, M. Caricato, X. Li, H. P. Hratchian, 
 A. F. Izmaylov, J. Bloino, G. Zheng, J. L. Sonnenberg, M. Hada, 
 M. Ehara, K. Toyota, R. Fukuda, J. Hasegawa, M. Ishida, T. Nakajima, 
 Y. Honda, O. Kitao, H. Nakai, T. Vreven, J. A. Montgomery, Jr., 
 J. E. Peralta, F. Ogliaro, M. Bearpark, J. J. Heyd, E. Brothers, 
 K. N. Kudin, V. N. Staroverov, R. Kobayashi, J. Normand, 
 K. Raghavachari, A. Rendell, J. C. Burant, S. S. Iyengar, J. Tomasi, 
 M. Cossi, N. Rega, J. M. Millam, M. Klene, J. E. Knox, J. B. Cross, 
 V. Bakken, C. Adamo, J. Jaramillo, R. Gomperts, R. E. Stratmann, 
 O. Yazyev, A. J. Austin, R. Cammi, C. Pomelli, J. W. Ochterski, 
 R. L. Martin, K. Morokuma, V. G. Zakrzewski, G. A. Voth, 
 P. Salvador, J. J. Dannenberg, S. Dapprich, A. D. Daniels, 
 O. Farkas, J. B. Foresman, J. V. Ortiz, J. Cioslowski, 
 and D. J. Fox, Gaussian, Inc., Wallingford CT, 2009.
 
 ******************************************
 Gaussian 09:  EM64L-G09RevA.02 11-Jun-2009
                 8-Mar-2017 
 ******************************************
 %chk=PAM_FOR_3.chk
 %nprocshared=2
 Will use up to    2 processors via shared memory.
 --------------------------------------
 # opt M062X/6-311+G* geom=connectivity
 --------------------------------------
 1/14=-1,18=20,19=15,26=3,38=1,57=2/1,3;
 2/9=110,12=2,17=6,18=5,40=1/2;
 3/5=4,6=6,7=11,11=2,16=1,25=1,30=1,71=1,74=-55/1,2,3;
 4//1;
 5/5=2,38=5/2;
 6/7=2,8=2,9=2,10=2,28=1/1;
 7//1,2,3,16;
 1/14=-1,18=20,19=15/3(2);
 2/9=110/2;
 99//99;
 2/9=110/2;
 3/5=4,6=6,7=11,11=2,16=1,25=1,30=1,71=1,74=-55/1,2,3;
 4/5=5,16=3/1;
 5/5=2,38=5/2;
 7//1,2,3,16;
 1/14=-1,18=20,19=15/3(-5);
 2/9=110/2;
 6/7=2,8=2,9=2,10=2,19=2,28=1/1;
 99/9=1/99;
 -------------------
 Title Card Required
 -------------------
 Symbolic Z-matrix:
 Charge =  0 Multiplicity = 1
 C(PDBName=C1,ResName=PAM,ResNum=1) -2.13114  -0.80019   0.11587 
 H(PDBName=H1,ResName=PAM,ResNum=1) -1.89144  -1.8138    0.3609 
 H(PDBName=H2,ResName=PAM,ResNum=1) -3.19353  -0.69064   0.05081 
 C(PDBName=C2,ResName=PAM,ResNum=1) -1.58467   0.13547   1.21018 
 H(PDBName=H3,ResName=PAM,ResNum=1) -1.82437   1.14908   0.96516 
 H(PDBName=H4,ResName=PAM,ResNum=1) -2.02766  -0.1185    2.15048 
 C(PDBName=C3,ResName=PAM,ResNum=1) -0.05563  -0.02219   1.30382 
 H(PDBName=H5,ResName=PAM,ResNum=1)  0.38737   0.23177   0.36352 
 H(PDBName=H6,ResName=PAM,ResNum=1)  0.18407  -1.0358    1.54885 
 C(PDBName=C4,ResName=PAM,ResNum=1)  0.49085   0.91346   2.39813 
 H(PDBName=H7,ResName=PAM,ResNum=1)  0.04785   0.6595    3.33843 
 H(PDBName=H8,ResName=PAM,ResNum=1)  0.25115   1.92707   2.1531 
 N(PDBName=N1,ResName=PAM,ResNum=1)  1.95039   0.76297   2.48751 
 H(PDBName=H9,ResName=PAM,ResNum=1)  2.30524   1.37054   3.1981 
 H(PDBName=H10,ResName=PAM,ResNum=1)  2.17441  -0.18433   2.71651 
 H(PDBName=H11,ResName=PAM,ResNum=1)  2.3644    1.00032   1.60873 
 C(PDBName=C5,ResName=PAM,ResNum=1) -1.49356  -0.43467  -1.23745 
 H(PDBName=H12,ResName=PAM,ResNum=1) -0.43118  -0.54421  -1.17239 
 H(PDBName=H13,ResName=PAM,ResNum=1) -1.87326  -1.08477  -1.99778 
 H(PDBName=H14,ResName=PAM,ResNum=1) -1.73327   0.57894  -1.48248 
 O                     4.977    -0.00208   1.27773 
 C                     3.71861  -0.00466   1.27745 
 H                     3.1817    0.92034   1.3092 
 O                     3.09165  -1.09511   1.23982 
 

 GradGradGradGradGradGradGradGradGradGradGradGradGradGradGradGradGradGrad
 Berny optimization.
 Initialization pass.
                           ----------------------------
                           !    Initial Parameters    !
                           ! (Angstroms and Degrees)  !
 --------------------------                            --------------------------
 ! Name  Definition              Value          Derivative Info.                !
 --------------------------------------------------------------------------------
 ! R1    R(1,2)                  1.07           estimate D2E/DX2                !
 ! R2    R(1,3)                  1.07           estimate D2E/DX2                !
 ! R3    R(1,4)                  1.54           estimate D2E/DX2                !
 ! R4    R(1,17)                 1.54           estimate D2E/DX2                !
 ! R5    R(4,5)                  1.07           estimate D2E/DX2                !
 ! R6    R(4,6)                  1.07           estimate D2E/DX2                !
 ! R7    R(4,7)                  1.54           estimate D2E/DX2                !
 ! R8    R(7,8)                  1.07           estimate D2E/DX2                !
 ! R9    R(7,9)                  1.07           estimate D2E/DX2                !
 ! R10   R(7,10)                 1.54           estimate D2E/DX2                !
 ! R11   R(10,11)                1.07           estimate D2E/DX2                !
 ! R12   R(10,12)                1.07           estimate D2E/DX2                !
 ! R13   R(10,13)                1.47           estimate D2E/DX2                !
 ! R14   R(13,14)                1.0            estimate D2E/DX2                !
 ! R15   R(13,15)                1.0            estimate D2E/DX2                !
 ! R16   R(13,16)                1.0            estimate D2E/DX2                !
 ! R17   R(16,23)                0.8741         estimate D2E/DX2                !
 ! R18   R(17,18)                1.07           estimate D2E/DX2                !
 ! R19   R(17,19)                1.07           estimate D2E/DX2                !
 ! R20   R(17,20)                1.07           estimate D2E/DX2                !
 ! R21   R(21,22)                1.2584         estimate D2E/DX2                !
 ! R22   R(22,23)                1.07           estimate D2E/DX2                !
 ! R23   R(22,24)                1.2584         estimate D2E/DX2                !
 ! A1    A(2,1,3)              109.4712         estimate D2E/DX2                !
 ! A2    A(2,1,4)              109.4712         estimate D2E/DX2                !
 ! A3    A(2,1,17)             109.4712         estimate D2E/DX2                !
 ! A4    A(3,1,4)              109.4712         estimate D2E/DX2                !
 ! A5    A(3,1,17)             109.4712         estimate D2E/DX2                !
 ! A6    A(4,1,17)             109.4712         estimate D2E/DX2                !
 ! A7    A(1,4,5)              109.4712         estimate D2E/DX2                !
 ! A8    A(1,4,6)              109.4712         estimate D2E/DX2                !
 ! A9    A(1,4,7)              109.4712         estimate D2E/DX2                !
 ! A10   A(5,4,6)              109.4712         estimate D2E/DX2                !
 ! A11   A(5,4,7)              109.4712         estimate D2E/DX2                !
 ! A12   A(6,4,7)              109.4712         estimate D2E/DX2                !
 ! A13   A(4,7,8)              109.4712         estimate D2E/DX2                !
 ! A14   A(4,7,9)              109.4712         estimate D2E/DX2                !
 ! A15   A(4,7,10)             109.4712         estimate D2E/DX2                !
 ! A16   A(8,7,9)              109.4712         estimate D2E/DX2                !
 ! A17   A(8,7,10)             109.4712         estimate D2E/DX2                !
 ! A18   A(9,7,10)             109.4712         estimate D2E/DX2                !
 ! A19   A(7,10,11)            109.4712         estimate D2E/DX2                !
 ! A20   A(7,10,12)            109.4712         estimate D2E/DX2                !
 ! A21   A(7,10,13)            109.4712         estimate D2E/DX2                !
 ! A22   A(11,10,12)           109.4712         estimate D2E/DX2                !
 ! A23   A(11,10,13)           109.4712         estimate D2E/DX2                !
 ! A24   A(12,10,13)           109.4712         estimate D2E/DX2                !
 ! A25   A(10,13,14)           109.4712         estimate D2E/DX2                !
 ! A26   A(10,13,15)           109.4712         estimate D2E/DX2                !
 ! A27   A(10,13,16)           109.4712         estimate D2E/DX2                !
 ! A28   A(14,13,15)           109.4712         estimate D2E/DX2                !
 ! A29   A(14,13,16)           109.4712         estimate D2E/DX2                !
 ! A30   A(15,13,16)           109.4712         estimate D2E/DX2                !
 ! A31   A(13,16,23)           131.7984         estimate D2E/DX2                !
 ! A32   A(1,17,18)            109.4712         estimate D2E/DX2                !
 ! A33   A(1,17,19)            109.4712         estimate D2E/DX2                !
 ! A34   A(1,17,20)            109.4712         estimate D2E/DX2                !
 ! A35   A(18,17,19)           109.4712         estimate D2E/DX2                !
 ! A36   A(18,17,20)           109.4712         estimate D2E/DX2                !
 ! A37   A(19,17,20)           109.4712         estimate D2E/DX2                !
 ! A38   A(21,22,23)           120.0            estimate D2E/DX2                !
 ! A39   A(21,22,24)           120.0            estimate D2E/DX2                !
 ! A40   A(23,22,24)           120.0            estimate D2E/DX2                !
 ! A41   A(16,23,22)           123.9466         estimate D2E/DX2                !
 ! D1    D(2,1,4,5)            180.0            estimate D2E/DX2                !
 ! D2    D(2,1,4,6)            -60.0            estimate D2E/DX2                !
 ! D3    D(2,1,4,7)             60.0            estimate D2E/DX2                !
 ! D4    D(3,1,4,5)            -60.0            estimate D2E/DX2                !
 ! D5    D(3,1,4,6)             60.0            estimate D2E/DX2                !
 ! D6    D(3,1,4,7)            180.0            estimate D2E/DX2                !
 ! D7    D(17,1,4,5)            60.0            estimate D2E/DX2                !
 ! D8    D(17,1,4,6)           180.0            estimate D2E/DX2                !
 ! D9    D(17,1,4,7)           -60.0            estimate D2E/DX2                !
 ! D10   D(2,1,17,18)          -60.0            estimate D2E/DX2                !
 ! D11   D(2,1,17,19)           60.0            estimate D2E/DX2                !
 ! D12   D(2,1,17,20)         -180.0            estimate D2E/DX2                !
 ! D13   D(3,1,17,18)          180.0            estimate D2E/DX2                !
 ! D14   D(3,1,17,19)          -60.0            estimate D2E/DX2                !
 ! D15   D(3,1,17,20)           60.0            estimate D2E/DX2                !
 ! D16   D(4,1,17,18)           60.0            estimate D2E/DX2                !
 ! D17   D(4,1,17,19)          180.0            estimate D2E/DX2                !
 ! D18   D(4,1,17,20)          -60.0            estimate D2E/DX2                !
 ! D19   D(1,4,7,8)             60.0            estimate D2E/DX2                !
 ! D20   D(1,4,7,9)            -60.0            estimate D2E/DX2                !
 ! D21   D(1,4,7,10)           180.0            estimate D2E/DX2                !
 ! D22   D(5,4,7,8)            -60.0            estimate D2E/DX2                !
 ! D23   D(5,4,7,9)            180.0            estimate D2E/DX2                !
 ! D24   D(5,4,7,10)            60.0            estimate D2E/DX2                !
 ! D25   D(6,4,7,8)            180.0            estimate D2E/DX2                !
 ! D26   D(6,4,7,9)             60.0            estimate D2E/DX2                !
 ! D27   D(6,4,7,10)           -60.0            estimate D2E/DX2                !
 ! D28   D(4,7,10,11)           60.0            estimate D2E/DX2                !
 ! D29   D(4,7,10,12)          -60.0            estimate D2E/DX2                !
 ! D30   D(4,7,10,13)          180.0            estimate D2E/DX2                !
 ! D31   D(8,7,10,11)          180.0            estimate D2E/DX2                !
 ! D32   D(8,7,10,12)           60.0            estimate D2E/DX2                !
 ! D33   D(8,7,10,13)          -60.0            estimate D2E/DX2                !
 ! D34   D(9,7,10,11)          -60.0            estimate D2E/DX2                !
 ! D35   D(9,7,10,12)          180.0            estimate D2E/DX2                !
 ! D36   D(9,7,10,13)           60.0            estimate D2E/DX2                !
 ! D37   D(7,10,13,14)         180.0            estimate D2E/DX2                !
 ! D38   D(7,10,13,15)         -60.0            estimate D2E/DX2                !
 ! D39   D(7,10,13,16)          60.0            estimate D2E/DX2                !
 ! D40   D(11,10,13,14)        -60.0            estimate D2E/DX2                !
 ! D41   D(11,10,13,15)         60.0            estimate D2E/DX2                !
 ! D42   D(11,10,13,16)       -180.0            estimate D2E/DX2                !
 ! D43   D(12,10,13,14)         60.0            estimate D2E/DX2                !
 ! D44   D(12,10,13,15)        180.0            estimate D2E/DX2                !
 ! D45   D(12,10,13,16)        -60.0            estimate D2E/DX2                !
 ! D46   D(10,13,16,23)       -171.2614         estimate D2E/DX2                !
 ! D47   D(14,13,16,23)         68.7386         estimate D2E/DX2                !
 ! D48   D(15,13,16,23)        -51.2614         estimate D2E/DX2                !
 ! D49   D(13,16,23,22)         56.2525         estimate D2E/DX2                !
 ! D50   D(21,22,23,16)       -155.8449         estimate D2E/DX2                !
 ! D51   D(24,22,23,16)         24.1551         estimate D2E/DX2                !
 --------------------------------------------------------------------------------
 Trust Radius=3.00D-01 FncErr=1.00D-07 GrdErr=1.00D-06
 Number of steps in this run= 125 maximum allowed number of steps= 144.
 GradGradGradGradGradGradGradGradGradGradGradGradGradGradGradGradGradGrad

                          Input orientation:                          
 ---------------------------------------------------------------------
 Center     Atomic      Atomic             Coordinates (Angstroms)
 Number     Number       Type             X           Y           Z
 ---------------------------------------------------------------------
      1          6           0       -2.131144   -0.800188    0.115872
      2          1           0       -1.891444   -1.813798    0.360899
      3          1           0       -3.193532   -0.690643    0.050811
      4          6           0       -1.584671    0.135469    1.210181
      5          1           0       -1.824372    1.149079    0.965155
      6          1           0       -2.027664   -0.118496    2.150478
      7          6           0       -0.055627   -0.022195    1.303821
      8          1           0        0.387366    0.231771    0.363524
      9          1           0        0.184074   -1.035805    1.548847
     10          6           0        0.490846    0.913462    2.398130
     11          1           0        0.047853    0.659497    3.338427
     12          1           0        0.251145    1.927073    2.153103
     13          7           0        1.950388    0.762965    2.487513
     14          1           0        2.305241    1.370535    3.198103
     15          1           0        2.174407   -0.184334    2.716510
     16          1           0        2.364400    1.000316    1.608731
     17          6           0       -1.493565   -0.434668   -1.237452
     18          1           0       -0.431178   -0.544214   -1.172391
     19          1           0       -1.873258   -1.084768   -1.997784
     20          1           0       -1.733266    0.578942   -1.482479
     21          8           0        4.977004   -0.002082    1.277732
     22          6           0        3.718607   -0.004659    1.277446
     23          1           0        3.181703    0.920341    1.309198
     24          8           0        3.091648   -1.095108    1.239817
 ---------------------------------------------------------------------
                    Distance matrix (angstroms):
                    1          2          3          4          5
     1  C    0.000000
     2  H    1.070000   0.000000
     3  H    1.070000   1.747303   0.000000
     4  C    1.540000   2.148263   2.148263   0.000000
     5  H    2.148263   3.024610   2.468846   1.070000   0.000000
     6  H    2.148263   2.468846   2.468846   1.070000   1.747303
     7  C    2.514809   2.732978   3.444314   1.540000   2.148263
     8  H    2.732978   3.062243   3.710993   2.148263   2.468846
     9  H    2.732978   2.514809   3.710993   2.148263   3.024610
    10  C    3.875582   4.154945   4.653783   2.514809   2.732978
    11  H    4.154945   4.329403   4.810184   2.732978   3.062243
    12  H    4.154945   4.668704   4.810184   2.732978   2.514809
    13  N    4.972628   5.091352   5.874555   3.810770   4.088455
    14  H    5.821830   5.983466   6.662612   4.539673   4.699872
    15  H    5.067580   4.973450   6.014737   4.062261   4.564588
    16  H    5.067580   5.252479   6.014737   4.062261   4.240535
    17  C    1.540000   2.148263   2.148263   2.514809   2.732978
    18  H    2.148263   2.468846   3.024610   2.732978   3.062243
    19  H    2.148263   2.468846   2.468846   3.444314   3.710993
    20  H    2.148263   3.024610   2.468846   2.732978   2.514809
    21  O    7.246562   7.162295   8.290784   6.563464   6.905186
    22  C    6.016785   5.965375   7.053571   5.305555   5.670383
    23  H    5.710569   5.840515   6.694956   4.831579   5.023094
    24  O    5.350494   5.110794   6.409431   4.835613   5.411013
                    6          7          8          9         10
     6  H    0.000000
     7  C    2.148263   0.000000
     8  H    3.024610   1.070000   0.000000
     9  H    2.468846   1.070000   1.747303   0.000000
    10  C    2.732978   1.540000   2.148263   2.148263   0.000000
    11  H    2.514809   2.148263   3.024610   2.468846   1.070000
    12  H    3.062243   2.148263   2.468846   3.024610   1.070000
    13  N    4.088455   2.457987   2.690081   2.690081   1.470000
    14  H    4.699872   3.331921   3.606919   3.606919   2.034920
    15  H    4.240535   2.644813   2.983823   2.459648   2.034920
    16  H    4.564588   2.644813   2.459648   2.983823   2.034920
    17  C    3.444314   2.948875   2.558352   3.307461   4.355778
    18  H    3.710993   2.558352   1.905571   2.832902   3.965295
    19  H    4.262112   3.915793   3.524126   4.100439   5.376427
    20  H    3.710993   3.307461   2.832902   3.933514   4.485276
    21  O    7.059789   5.032739   4.685642   4.910628   4.713717
    22  C    5.813327   3.774367   3.462415   3.691862   3.537982
    23  H    5.378146   3.371752   3.029315   3.587440   2.902849
    24  O    5.290598   3.325745   3.137138   2.924552   3.484280
                   11         12         13         14         15
    11  H    0.000000
    12  H    1.747303   0.000000
    13  N    2.086720   2.086720   0.000000
    14  H    2.370879   2.370879   1.000000   0.000000
    15  H    2.370879   2.911082   1.000000   1.632993   0.000000
    16  H    2.911082   2.370879   1.000000   1.632993   1.632993
    17  C    4.950943   4.485276   5.212533   6.112596   5.399120
    18  H    4.693172   4.199016   4.558011   5.500497   4.694905
    19  H    5.933655   5.551048   6.176752   7.105322   6.278450
    20  H    5.140039   4.355778   5.418856   6.232495   5.786536
    21  O    5.383371   5.178962   3.348025   3.565140   3.155605
    22  C    4.261828   4.064684   2.275985   2.752760   2.118428
    23  H    3.742570   3.211519   1.711529   2.130452   2.053163
    24  O    4.092370   4.246895   2.512301   3.245414   1.962514
                   16         17         18         19         20
    16  H    0.000000
    17  C    5.004381   0.000000
    18  H    4.235029   1.070000   0.000000
    19  H    5.942413   1.070000   1.747303   0.000000
    20  H    5.150146   1.070000   1.747303   1.747303   0.000000
    21  O    2.817811   6.955684   5.961999   7.669895   7.279016
    22  C    1.718604   5.803133   4.849075   6.569833   6.138460
    23  H    0.874128   5.493597   4.621267   6.364685   5.662767
    24  O    2.248508   5.253305   4.304942   5.927263   5.787324
                   21         22         23         24
    21  O    0.000000
    22  C    1.258400   0.000000
    23  H    2.018653   1.070000   0.000000
    24  O    2.179613   1.258400   2.018653   0.000000
 Stoichiometry    C6H15NO2
 Framework group  C1[X(C6H15NO2)]
 Deg. of freedom    66
 Full point group                 C1      NOp   1
 Largest Abelian subgroup         C1      NOp   1
 Largest concise Abelian subgroup C1      NOp   1
                         Standard orientation:                         
 ---------------------------------------------------------------------
 Center     Atomic      Atomic             Coordinates (Angstroms)
 Number     Number       Type             X           Y           Z
 ---------------------------------------------------------------------
      1          6           0       -3.267583   -0.438897    0.430497
      2          1           0       -3.029247   -0.780152    1.416216
      3          1           0       -4.303019   -0.172863    0.385792
      4          6           0       -2.406266    0.791762    0.091068
      5          1           0       -2.644602    1.133016   -0.894650
      6          1           0       -2.604919    1.571610    0.796245
      7          6           0       -0.916013    0.408872    0.155410
      8          1           0       -0.717360   -0.370976   -0.549767
      9          1           0       -0.677677    0.067617    1.141129
     10          6           0       -0.054696    1.639531   -0.184019
     11          1           0       -0.253349    2.419379    0.521158
     12          1           0       -0.293032    1.980785   -1.169738
     13          7           0        1.367818    1.274045   -0.122602
     14          1           0        1.927115    2.073174   -0.343010
     15          1           0        1.590562    0.955115    0.798631
     16          1           0        1.553475    0.545215   -0.781645
     17          6           0       -2.981672   -1.561295   -0.584430
     18          1           0       -1.946236   -1.827329   -0.539725
     19          1           0       -3.580119   -2.416364   -0.348593
     20          1           0       -3.220007   -1.220041   -1.570149
     21          8           0        3.932504   -0.873422   -0.264199
     22          6           0        2.718522   -0.557331   -0.164671
     23          1           0        2.260056    0.048917   -0.917779
     24          8           0        2.043731   -0.954235    0.820568
 ---------------------------------------------------------------------
 Rotational constants (GHZ):      2.6843372      0.5893683      0.5142469
 Standard basis: 6-311+G(d) (5D, 7F)
 There are   243 symmetry adapted basis functions of A   symmetry.
 Integral buffers will be    131072 words long.
 Raffenetti 2 integral format.
 Two-electron integral symmetry is turned on.
   243 basis functions,   399 primitive gaussians,   252 cartesian basis functions
    37 alpha electrons       37 beta electrons
       nuclear repulsion energy       475.0082087265 Hartrees.
 NAtoms=   24 NActive=   24 NUniq=   24 SFac= 7.50D-01 NAtFMM=   80 NAOKFM=F Big=F
 One-electron integrals computed using PRISM.
 NBasis=   243 RedAO= T  NBF=   243
 NBsUse=   243 1.00D-06 NBFU=   243
 Harris functional with IExCor= 1009 diagonalized for initial guess.
 ExpMin= 4.38D-02 ExpMax= 8.59D+03 ExpMxC= 1.30D+03 IAcc=2 IRadAn=         0 AccDes= 0.00D+00
 HarFok:  IExCor= 1009 AccDes= 0.00D+00 IRadAn=         0 IDoV= 1
 ScaDFX=  1.000000  1.000000  1.000000  1.000000
 FoFCou: FMM=F IPFlag=           0 FMFlag=      100000 FMFlg1=           0
         NFxFlg=           0 DoJE=T BraDBF=F KetDBF=T FulRan=T
         Omega=  0.000000  0.000000  1.000000  0.000000  0.000000 ICntrl=     500 IOpCl=  0
         NMat0=    1 NMatS0=    1 NMatT0=    0 NMatD0=    1 NMtDS0=    0 NMtDT0=    0
         I1Cent=           4 NGrid=           0.
 Petite list used in FoFCou.
 Initial guess orbital symmetries:
       Occupied  (A) (A) (A) (A) (A) (A) (A) (A) (A) (A) (A) (A)
                 (A) (A) (A) (A) (A) (A) (A) (A) (A) (A) (A) (A)
                 (A) (A) (A) (A) (A) (A) (A) (A) (A) (A) (A) (A)
                 (A)
       Virtual   (A) (A) (A) (A) (A) (A) (A) (A) (A) (A) (A) (A)
                 (A) (A) (A) (A) (A) (A) (A) (A) (A) (A) (A) (A)
                 (A) (A) (A) (A) (A) (A) (A) (A) (A) (A) (A) (A)
                 (A) (A) (A) (A) (A) (A) (A) (A) (A) (A) (A) (A)
                 (A) (A) (A) (A) (A) (A) (A) (A) (A) (A) (A) (A)
                 (A) (A) (A) (A) (A) (A) (A) (A) (A) (A) (A) (A)
                 (A) (A) (A) (A) (A) (A) (A) (A) (A) (A) (A) (A)
                 (A) (A) (A) (A) (A) (A) (A) (A) (A) (A) (A) (A)
                 (A) (A) (A) (A) (A) (A) (A) (A) (A) (A) (A) (A)
                 (A) (A) (A) (A) (A) (A) (A) (A) (A) (A) (A) (A)
                 (A) (A) (A) (A) (A) (A) (A) (A) (A) (A) (A) (A)
                 (A) (A) (A) (A) (A) (A) (A) (A) (A) (A) (A) (A)
                 (A) (A) (A) (A) (A) (A) (A) (A) (A) (A) (A) (A)
                 (A) (A) (A) (A) (A) (A) (A) (A) (A) (A) (A) (A)
                 (A) (A) (A) (A) (A) (A) (A) (A) (A) (A) (A) (A)
                 (A) (A) (A) (A) (A) (A) (A) (A) (A) (A) (A) (A)
                 (A) (A) (A) (A) (A) (A) (A) (A) (A) (A) (A) (A)
                 (A) (A)
 The electronic state of the initial guess is 1-A.
 Requested convergence on RMS density matrix=1.00D-08 within 128 cycles.
 Requested convergence on MAX density matrix=1.00D-06.
 Requested convergence on             energy=1.00D-06.
 No special actions if energy rises.
 SCF Done:  E(RM062X) =  -442.628077179     A.U. after   14 cycles
             Convg  =    0.8523D-08             -V/T =  2.0013

 **********************************************************************

            Population analysis using the SCF density.

 **********************************************************************

 Orbital symmetries:
       Occupied  (A) (A) (A) (A) (A) (A) (A) (A) (A) (A) (A) (A)
                 (A) (A) (A) (A) (A) (A) (A) (A) (A) (A) (A) (A)
                 (A) (A) (A) (A) (A) (A) (A) (A) (A) (A) (A) (A)
                 (A)
       Virtual   (A) (A) (A) (A) (A) (A) (A) (A) (A) (A) (A) (A)
                 (A) (A) (A) (A) (A) (A) (A) (A) (A) (A) (A) (A)
                 (A) (A) (A) (A) (A) (A) (A) (A) (A) (A) (A) (A)
                 (A) (A) (A) (A) (A) (A) (A) (A) (A) (A) (A) (A)
                 (A) (A) (A) (A) (A) (A) (A) (A) (A) (A) (A) (A)
                 (A) (A) (A) (A) (A) (A) (A) (A) (A) (A) (A) (A)
                 (A) (A) (A) (A) (A) (A) (A) (A) (A) (A) (A) (A)
                 (A) (A) (A) (A) (A) (A) (A) (A) (A) (A) (A) (A)
                 (A) (A) (A) (A) (A) (A) (A) (A) (A) (A) (A) (A)
                 (A) (A) (A) (A) (A) (A) (A) (A) (A) (A) (A) (A)
                 (A) (A) (A) (A) (A) (A) (A) (A) (A) (A) (A) (A)
                 (A) (A) (A) (A) (A) (A) (A) (A) (A) (A) (A) (A)
                 (A) (A) (A) (A) (A) (A) (A) (A) (A) (A) (A) (A)
                 (A) (A) (A) (A) (A) (A) (A) (A) (A) (A) (A) (A)
                 (A) (A) (A) (A) (A) (A) (A) (A) (A) (A) (A) (A)
                 (A) (A) (A) (A) (A) (A) (A) (A) (A) (A) (A) (A)
                 (A) (A) (A) (A) (A) (A) (A) (A) (A) (A) (A) (A)
                 (A) (A)
 The electronic state is 1-A.
 Alpha  occ. eigenvalues --  -19.54756 -19.53589 -14.87024 -10.63114 -10.60691
 Alpha  occ. eigenvalues --  -10.56766 -10.55655 -10.54486 -10.52872  -1.17997
 Alpha  occ. eigenvalues --   -1.12536  -1.02273  -0.94705  -0.88969  -0.82261
 Alpha  occ. eigenvalues --   -0.78429  -0.74550  -0.70636  -0.67961  -0.64799
 Alpha  occ. eigenvalues --   -0.59102  -0.57272  -0.55040  -0.53108  -0.50019
 Alpha  occ. eigenvalues --   -0.49694  -0.47518  -0.46479  -0.45393  -0.44782
 Alpha  occ. eigenvalues --   -0.44157  -0.41972  -0.40821  -0.40728  -0.31232
 Alpha  occ. eigenvalues --   -0.28703  -0.27679
 Alpha virt. eigenvalues --   -0.03413  -0.00137   0.00249   0.00785   0.02194
 Alpha virt. eigenvalues --    0.03036   0.03766   0.04890   0.05221   0.06319
 Alpha virt. eigenvalues --    0.06651   0.07142   0.08150   0.08235   0.08730
 Alpha virt. eigenvalues --    0.10179   0.10568   0.11148   0.11483   0.11942
 Alpha virt. eigenvalues --    0.12925   0.13512   0.13810   0.14551   0.14959
 Alpha virt. eigenvalues --    0.15905   0.16965   0.17471   0.18628   0.18756
 Alpha virt. eigenvalues --    0.19080   0.20240   0.20922   0.21594   0.22197
 Alpha virt. eigenvalues --    0.23039   0.23751   0.24803   0.25516   0.26140
 Alpha virt. eigenvalues --    0.26677   0.27671   0.27806   0.28828   0.29378
 Alpha virt. eigenvalues --    0.30114   0.30630   0.31421   0.31956   0.33275
 Alpha virt. eigenvalues --    0.33505   0.34310   0.35266   0.35681   0.37370
 Alpha virt. eigenvalues --    0.39347   0.40700   0.41278   0.43188   0.44731
 Alpha virt. eigenvalues --    0.45231   0.46624   0.48388   0.49117   0.50187
 Alpha virt. eigenvalues --    0.52451   0.53709   0.56329   0.58368   0.59306
 Alpha virt. eigenvalues --    0.60824   0.62349   0.63722   0.66508   0.67539
 Alpha virt. eigenvalues --    0.68336   0.68990   0.70142   0.70839   0.71694
 Alpha virt. eigenvalues --    0.73240   0.73942   0.74140   0.74829   0.75307
 Alpha virt. eigenvalues --    0.75883   0.78391   0.79072   0.80258   0.80677
 Alpha virt. eigenvalues --    0.81505   0.82690   0.83681   0.86898   0.89232
 Alpha virt. eigenvalues --    0.97097   0.98322   0.98629   1.04970   1.08999
 Alpha virt. eigenvalues --    1.10123   1.14483   1.16872   1.18399   1.21748
 Alpha virt. eigenvalues --    1.25921   1.26518   1.27138   1.29762   1.30768
 Alpha virt. eigenvalues --    1.32896   1.35010   1.43217   1.44972   1.47194
 Alpha virt. eigenvalues --    1.52746   1.53899   1.55797   1.57857   1.58582
 Alpha virt. eigenvalues --    1.61583   1.63127   1.64993   1.65780   1.66983
 Alpha virt. eigenvalues --    1.68207   1.68845   1.72829   1.76039   1.78855
 Alpha virt. eigenvalues --    1.80293   1.83097   1.85735   1.89191   1.92422
 Alpha virt. eigenvalues --    1.97208   1.99601   2.02885   2.05030   2.08321
 Alpha virt. eigenvalues --    2.11084   2.16316   2.18105   2.28000   2.39026
 Alpha virt. eigenvalues --    2.47925   2.51101   2.55230   2.56225   2.57620
 Alpha virt. eigenvalues --    2.59146   2.60015   2.62876   2.64449   2.66217
 Alpha virt. eigenvalues --    2.67795   2.70735   2.73631   2.75393   2.85854
 Alpha virt. eigenvalues --    2.90310   2.96636   2.98402   2.99208   3.01302
 Alpha virt. eigenvalues --    3.03462   3.05452   3.05682   3.10109   3.20098
 Alpha virt. eigenvalues --    3.24028   3.25278   3.26345   3.32156   3.32761
 Alpha virt. eigenvalues --    3.33585   3.35869   3.39403   3.40667   3.43824
 Alpha virt. eigenvalues --    3.46027   3.68436   3.77072   3.85272   3.88820
 Alpha virt. eigenvalues --    3.98833   4.07975   4.08640   4.16085   4.17867
 Alpha virt. eigenvalues --    4.56461   5.20254   5.23870   5.26784   5.36061
 Alpha virt. eigenvalues --    5.65170   5.99056  23.53533  23.63552  23.72274
 Alpha virt. eigenvalues --   23.77946  23.78614  23.90957  35.40986  50.05673
 Alpha virt. eigenvalues --   50.15376
          Condensed to atoms (all electrons):
              1          2          3          4          5          6
     1  C    6.097729   0.445275   0.395134  -0.535363  -0.016403   0.008629
     2  H    0.445275   0.417108  -0.027550   0.021808   0.003898  -0.006280
     3  H    0.395134  -0.027550   0.440434  -0.116553  -0.004661  -0.004404
     4  C   -0.535363   0.021808  -0.116553   7.611687   0.438923   0.315843
     5  H   -0.016403   0.003898  -0.004661   0.438923   0.424118  -0.030210
     6  H    0.008629  -0.006280  -0.004404   0.315843  -0.030210   0.449328
     7  C    0.245116  -0.049870   0.071358  -1.042008  -0.046970   0.002762
     8  H    0.022153   0.000233  -0.000270  -0.159537  -0.003097   0.005710
     9  H    0.029455   0.000854  -0.000080  -0.097416   0.003989  -0.004492
    10  C   -0.194411   0.000355   0.001495   0.202861  -0.017489  -0.018971
    11  H    0.007730   0.000041  -0.000064  -0.034455  -0.000079   0.003177
    12  H    0.001886  -0.000036   0.000022  -0.023576   0.001903   0.000091
    13  N   -0.036412   0.000240   0.000367   0.144151   0.000839  -0.004012
    14  H    0.001690  -0.000002   0.000000   0.004378   0.000011   0.000015
    15  H    0.007033  -0.000065  -0.000003  -0.041266   0.000051   0.000360
    16  H    0.004923   0.000001  -0.000009  -0.017632  -0.000114   0.000291
    17  C    0.030666  -0.072044  -0.011614  -0.030619  -0.026415   0.018005
    18  H   -0.009477  -0.005545   0.005073  -0.041873   0.000653  -0.000512
    19  H   -0.101898  -0.003061  -0.002773   0.051373  -0.000388  -0.000119
    20  H   -0.001579   0.004718  -0.007223  -0.022402   0.001585   0.000051
    21  O    0.000168   0.000000   0.000000   0.002687  -0.000002   0.000001
    22  C    0.009212  -0.000051   0.000012  -0.040943   0.000497   0.000179
    23  H    0.002156  -0.000006   0.000000   0.006754   0.000032  -0.000044
    24  O   -0.002114  -0.000006   0.000005   0.019624  -0.000062   0.000023
              7          8          9         10         11         12
     1  C    0.245116   0.022153   0.029455  -0.194411   0.007730   0.001886
     2  H   -0.049870   0.000233   0.000854   0.000355   0.000041  -0.000036
     3  H    0.071358  -0.000270  -0.000080   0.001495  -0.000064   0.000022
     4  C   -1.042008  -0.159537  -0.097416   0.202861  -0.034455  -0.023576
     5  H   -0.046970  -0.003097   0.003989  -0.017489  -0.000079   0.001903
     6  H    0.002762   0.005710  -0.004492  -0.018971   0.003177   0.000091
     7  C    7.203307   0.485125   0.464977  -1.178041  -0.008058   0.028554
     8  H    0.485125   0.446366  -0.020583  -0.019496   0.005544  -0.005629
     9  H    0.464977  -0.020583   0.378487  -0.044815  -0.005146   0.003113
    10  C   -1.178041  -0.019496  -0.044815   7.867724   0.405914   0.334997
    11  H   -0.008058   0.005544  -0.005146   0.405914   0.401640  -0.023856
    12  H    0.028554  -0.005629   0.003113   0.334997  -0.023856   0.393134
    13  N    0.372248  -0.062983  -0.028443  -1.346562  -0.039325   0.010705
    14  H    0.005007  -0.000014   0.000653   0.011414  -0.003880  -0.004162
    15  H   -0.090234   0.006630   0.013692   0.248118  -0.007281  -0.000299
    16  H   -0.057750   0.023069  -0.000915   0.180319   0.008643  -0.020819
    17  C    0.020082   0.012195  -0.006851  -0.008121  -0.000872   0.002282
    18  H    0.005534  -0.003122   0.000970  -0.002310  -0.000094   0.000186
    19  H    0.000834   0.000745  -0.000196   0.001939   0.000004  -0.000008
    20  H   -0.003011  -0.000179   0.000011  -0.002633   0.000016  -0.000105
    21  O    0.014291  -0.000068  -0.000244  -0.025113   0.000017  -0.000114
    22  C   -0.025465   0.009495   0.008127   0.086569  -0.002828  -0.000843
    23  H   -0.054684  -0.004594   0.002583   0.146010  -0.002614   0.003860
    24  O    0.038322  -0.005344  -0.006123  -0.036705   0.001267  -0.001765
             13         14         15         16         17         18
     1  C   -0.036412   0.001690   0.007033   0.004923   0.030666  -0.009477
     2  H    0.000240  -0.000002  -0.000065   0.000001  -0.072044  -0.005545
     3  H    0.000367   0.000000  -0.000003  -0.000009  -0.011614   0.005073
     4  C    0.144151   0.004378  -0.041266  -0.017632  -0.030619  -0.041873
     5  H    0.000839   0.000011   0.000051  -0.000114  -0.026415   0.000653
     6  H   -0.004012   0.000015   0.000360   0.000291   0.018005  -0.000512
     7  C    0.372248   0.005007  -0.090234  -0.057750   0.020082   0.005534
     8  H   -0.062983  -0.000014   0.006630   0.023069   0.012195  -0.003122
     9  H   -0.028443   0.000653   0.013692  -0.000915  -0.006851   0.000970
    10  C   -1.346562   0.011414   0.248118   0.180319  -0.008121  -0.002310
    11  H   -0.039325  -0.003880  -0.007281   0.008643  -0.000872  -0.000094
    12  H    0.010705  -0.004162  -0.000299  -0.020819   0.002282   0.000186
    13  N    9.662758   0.156437  -0.262337  -0.186821   0.006071  -0.000420
    14  H    0.156437   0.341959   0.013795   0.003414  -0.000238   0.000010
    15  H   -0.262337   0.013795   0.454377   0.045644  -0.000165   0.000114
    16  H   -0.186821   0.003414   0.045644   0.412171  -0.001508  -0.000231
    17  C    0.006071  -0.000238  -0.000165  -0.001508   5.807137   0.390289
    18  H   -0.000420   0.000010   0.000114  -0.000231   0.390289   0.445765
    19  H   -0.000125   0.000000   0.000001   0.000011   0.408705  -0.024563
    20  H    0.000087   0.000001  -0.000005   0.000014   0.382921  -0.033467
    21  O    0.099131  -0.000127  -0.026294  -0.024453   0.000001  -0.000005
    22  C   -0.463356   0.011998   0.087084   0.034353  -0.001450   0.000333
    23  H   -0.393166   0.000944   0.028928   0.160537  -0.001397   0.000148
    24  O   -0.035318   0.011050   0.103797  -0.032169   0.001530  -0.000188
             19         20         21         22         23         24
     1  C   -0.101898  -0.001579   0.000168   0.009212   0.002156  -0.002114
     2  H   -0.003061   0.004718   0.000000  -0.000051  -0.000006  -0.000006
     3  H   -0.002773  -0.007223   0.000000   0.000012   0.000000   0.000005
     4  C    0.051373  -0.022402   0.002687  -0.040943   0.006754   0.019624
     5  H   -0.000388   0.001585  -0.000002   0.000497   0.000032  -0.000062
     6  H   -0.000119   0.000051   0.000001   0.000179  -0.000044   0.000023
     7  C    0.000834  -0.003011   0.014291  -0.025465  -0.054684   0.038322
     8  H    0.000745  -0.000179  -0.000068   0.009495  -0.004594  -0.005344
     9  H   -0.000196   0.000011  -0.000244   0.008127   0.002583  -0.006123
    10  C    0.001939  -0.002633  -0.025113   0.086569   0.146010  -0.036705
    11  H    0.000004   0.000016   0.000017  -0.002828  -0.002614   0.001267
    12  H   -0.000008  -0.000105  -0.000114  -0.000843   0.003860  -0.001765
    13  N   -0.000125   0.000087   0.099131  -0.463356  -0.393166  -0.035318
    14  H    0.000000   0.000001  -0.000127   0.011998   0.000944   0.011050
    15  H    0.000001  -0.000005  -0.026294   0.087084   0.028928   0.103797
    16  H    0.000011   0.000014  -0.024453   0.034353   0.160537  -0.032169
    17  C    0.408705   0.382921   0.000001  -0.001450  -0.001397   0.001530
    18  H   -0.024563  -0.033467  -0.000005   0.000333   0.000148  -0.000188
    19  H    0.421155  -0.023198   0.000000  -0.000009  -0.000001   0.000000
    20  H   -0.023198   0.447225   0.000000   0.000013  -0.000003   0.000002
    21  O    0.000000   0.000000   8.328380   0.339059  -0.109083  -0.195370
    22  C   -0.000009   0.000013   0.339059   5.492389   0.355963   0.184404
    23  H   -0.000001  -0.000003  -0.109083   0.355963   0.989009  -0.153830
    24  O    0.000000   0.000002  -0.195370   0.184404  -0.153830   8.480123
 Mulliken atomic charges:
              1
     1  C   -0.411296
     2  H    0.269987
     3  H    0.261303
     4  C   -0.616446
     5  H    0.269392
     6  H    0.264579
     7  C   -0.401424
     8  H    0.267653
     9  H    0.308394
    10  C   -0.593048
    11  H    0.294559
    12  H    0.300480
    13  N   -0.593754
    14  H    0.445647
    15  H    0.418325
    16  H    0.469029
    17  C   -0.918589
    18  H    0.272732
    19  H    0.271571
    20  H    0.257163
    21  O   -0.402861
    22  C   -0.084742
    23  H    0.022498
    24  O   -0.371151
 Sum of Mulliken atomic charges =   0.00000
 Mulliken charges with hydrogens summed into heavy atoms:
              1
     1  C    0.119993
     4  C   -0.082475
     7  C    0.174622
    10  C    0.001991
    13  N    0.739247
    17  C   -0.117123
    21  O   -0.402861
    22  C   -0.062244
    24  O   -0.371151
 Sum of Mulliken charges with hydrogens summed into heavy atoms =   0.00000
 Electronic spatial extent (au):  <R**2>=           2188.1653
 Charge=              0.0000 electrons
 Dipole moment (field-independent basis, Debye):
    X=             -7.7916    Y=              8.1622    Z=             -1.9956  Tot=             11.4592
 Quadrupole moment (field-independent basis, Debye-Ang):
   XX=            -89.7141   YY=            -54.6715   ZZ=            -58.2077
   XY=             18.4686   XZ=             -2.8117   YZ=              1.3631
 Traceless Quadrupole moment (field-independent basis, Debye-Ang):
   XX=            -22.1830   YY=             12.8596   ZZ=              9.3234
   XY=             18.4686   XZ=             -2.8117   YZ=              1.3631
 Octapole moment (field-independent basis, Debye-Ang**2):
  XXX=           -140.8664  YYY=             22.1444  ZZZ=             -0.9216  XYY=              4.4729
  XXY=             51.3644  XXZ=              2.3284  XZZ=              0.7194  YZZ=              7.5300
  YYZ=             -1.8546  XYZ=              3.0142
 Hexadecapole moment (field-independent basis, Debye-Ang**3):
 XXXX=          -2839.8557 YYYY=           -470.1607 ZZZZ=           -156.7582 XXXY=            178.9025
 XXXZ=             33.7345 YYYX=             36.1250 YYYZ=             -2.8991 ZZZX=             -1.9427
 ZZZY=             -2.9971 XXYY=           -465.8491 XXZZ=           -414.2555 YYZZ=           -108.1684
 XXYZ=             -4.1393 YYXZ=            -10.1874 ZZXY=              6.7823
 N-N= 4.750082087265D+02 E-N=-1.983369330544D+03  KE= 4.420429264050D+02
 Calling FoFJK, ICntrl=      2127 FMM=F ISym2X=0 I1Cent= 0 IOpClX= 0 NMat=1 NMatS=1 NMatT=0.
 ***** Axes restored to original set *****
 -------------------------------------------------------------------
 Center     Atomic                   Forces (Hartrees/Bohr)
 Number     Number              X              Y              Z
 -------------------------------------------------------------------
      1        6           0.018021582    0.024821907   -0.005964534
      2        1           0.000803869   -0.015580659    0.004437397
      3        1          -0.015742671   -0.001415929    0.000110198
      4        6           0.016448438   -0.022383137   -0.014613939
      5        1          -0.006016072    0.016407685   -0.002163581
      6        1          -0.007613396   -0.000834240    0.015341748
      7        6          -0.016619403    0.022181237    0.021776049
      8        1           0.010049356    0.001682109   -0.009251315
      9        1           0.006783646   -0.014970097    0.000185771
     10        6          -0.014638531   -0.021735658   -0.014865470
     11        1          -0.005886546   -0.000889764    0.014187555
     12        1          -0.000578598    0.015210329   -0.000834816
     13        7          -0.111277735    0.025450399    0.080912537
     14        1           0.011795479    0.011753332    0.010514840
     15        1           0.011871292   -0.022732664   -0.006638256
     16        1          -0.051445698    0.010304056    0.008476012
     17        6          -0.013062443   -0.011254963    0.019983969
     18        1           0.012209523   -0.002836051   -0.006538846
     19        1          -0.002710039   -0.006697406   -0.013195894
     20        1          -0.002124110    0.014819434   -0.006227740
     21        8          -0.035561409    0.039155578    0.005605465
     22        6           0.137338394   -0.103399617   -0.045383241
     23        1           0.097298008    0.015232328   -0.064440771
     24        8          -0.039342936    0.027711790    0.008586862
 -------------------------------------------------------------------
 Cartesian Forces:  Max     0.137338394 RMS     0.033689357

 GradGradGradGradGradGradGradGradGradGradGradGradGradGradGradGradGradGrad
 Berny optimization.
 Internal  Forces:  Max     0.184066068 RMS     0.026658759
 Search for a local minimum.
 Step number   1 out of a maximum of  125
 All quantities printed in internal units (Hartrees-Bohrs-Radians)
 Mixed Optimization -- RFO/linear search
 Second derivative matrix not updated -- first step.
     Eigenvalues ---    0.00230   0.00237   0.00237   0.00237   0.00237
     Eigenvalues ---    0.00499   0.00499   0.00766   0.01028   0.03840
     Eigenvalues ---    0.03840   0.03840   0.04042   0.04896   0.04896
     Eigenvalues ---    0.04896   0.05076   0.05395   0.05720   0.05720
     Eigenvalues ---    0.05842   0.07655   0.07655   0.07655   0.07805
     Eigenvalues ---    0.11071   0.11701   0.11701   0.11701   0.11775
     Eigenvalues ---    0.13686   0.16000   0.16000   0.16000   0.16000
     Eigenvalues ---    0.16000   0.16000   0.16000   0.21948   0.21948
     Eigenvalues ---    0.21948   0.21950   0.22000   0.25447   0.28519
     Eigenvalues ---    0.28519   0.28519   0.28519   0.35740   0.37230
     Eigenvalues ---    0.37230   0.37230   0.37230   0.37230   0.37230
     Eigenvalues ---    0.37230   0.37230   0.37230   0.37230   0.37230
     Eigenvalues ---    0.37230   0.47688   0.47688   0.47688   0.80209
     Eigenvalues ---    0.802091000.000001000.000001000.000001000.00000
     Eigenvalues --- 1000.000001000.000001000.000001000.000001000.00000
     Eigenvalues --- 1000.000001000.000001000.000001000.000001000.00000
     Eigenvalues --- 1000.000001000.000001000.000001000.000001000.00000
     Eigenvalues --- 1000.000001000.000001000.000001000.000001000.00000
     Eigenvalues --- 1000.000001000.000001000.000001000.000001000.00000
     Eigenvalues --- 1000.000001000.000001000.000001000.000001000.00000
     Eigenvalues --- 1000.000001000.000001000.000001000.000001000.00000
     Eigenvalues --- 1000.000001000.000001000.000001000.000001000.00000
     Eigenvalues --- 1000.000001000.000001000.000001000.000001000.00000
 RFO step:  Lambda=-1.83603624D-01 EMin= 2.30000000D-03
 Linear search not attempted -- first point.
 Maximum step size (   0.300) exceeded in Quadratic search.
    -- Step size scaled by   0.454
 Iteration  1 RMS(Cart)=  0.10140758 RMS(Int)=  0.00294866
 Iteration  2 RMS(Cart)=  0.00463086 RMS(Int)=  0.00009614
 Iteration  3 RMS(Cart)=  0.00002749 RMS(Int)=  0.00009536
 Iteration  4 RMS(Cart)=  0.00000001 RMS(Int)=  0.00009536
 Variable       Old X    -DE/DX   Delta X   Delta X   Delta X     New X
                                 (Linear)    (Quad)   (Total)
    R1        2.02201   0.01595   0.00000   0.01301   0.01301   2.03502
    R2        2.02201   0.01548   0.00000   0.01263   0.01263   2.03464
    R3        2.91018   0.00504   0.00000   0.00488   0.00488   2.91505
    R4        2.91018   0.00149   0.00000   0.00144   0.00144   2.91162
    R5        2.02201   0.01739   0.00000   0.01419   0.01419   2.03619
    R6        2.02201   0.01683   0.00000   0.01373   0.01373   2.03574
    R7        2.91018  -0.00018   0.00000  -0.00017  -0.00017   2.91001
    R8        2.02201   0.01269   0.00000   0.01035   0.01035   2.03236
    R9        2.02201   0.01574   0.00000   0.01284   0.01284   2.03485
   R10        2.91018  -0.00532   0.00000  -0.00514  -0.00514   2.90503
   R11        2.02201   0.01512   0.00000   0.01233   0.01233   2.03434
   R12        2.02201   0.01473   0.00000   0.01202   0.01202   2.03402
   R13        2.77790   0.02003   0.00000   0.01680   0.01680   2.79469
   R14        1.88973   0.01880   0.00000   0.01291   0.01291   1.90263
   R15        1.88973   0.02268   0.00000   0.01557   0.01557   1.90530
   R16        1.88973   0.11880   0.00000   0.08158   0.08158   1.97131
   R17        1.65186   0.18407   0.00000   0.19057   0.19057   1.84243
   R18        2.02201   0.01201   0.00000   0.00980   0.00980   2.03181
   R19        2.02201   0.01441   0.00000   0.01175   0.01175   2.03376
   R20        2.02201   0.01595   0.00000   0.01301   0.01301   2.03502
   R21        2.37803  -0.03548   0.00000  -0.01633  -0.01633   2.36171
   R22        2.02201   0.06385   0.00000   0.05209   0.05209   2.07410
   R23        2.37803  -0.00466   0.00000  -0.00215  -0.00215   2.37589
    A1        1.91063   0.00186   0.00000  -0.00102  -0.00109   1.90954
    A2        1.91063  -0.00556   0.00000  -0.00518  -0.00524   1.90540
    A3        1.91063  -0.00464   0.00000  -0.00364  -0.00368   1.90696
    A4        1.91063  -0.00698   0.00000  -0.00825  -0.00823   1.90240
    A5        1.91063  -0.00669   0.00000  -0.00766  -0.00763   1.90300
    A6        1.91063   0.02202   0.00000   0.02574   0.02575   1.93638
    A7        1.91063  -0.00516   0.00000  -0.00488  -0.00493   1.90571
    A8        1.91063  -0.00538   0.00000  -0.00606  -0.00604   1.90459
    A9        1.91063   0.01937   0.00000   0.02268   0.02268   1.93331
   A10        1.91063   0.00148   0.00000  -0.00119  -0.00124   1.90940
   A11        1.91063  -0.00366   0.00000  -0.00259  -0.00262   1.90801
   A12        1.91063  -0.00665   0.00000  -0.00796  -0.00795   1.90268
   A13        1.91063   0.00267   0.00000   0.00467   0.00467   1.91530
   A14        1.91063   0.00059   0.00000   0.00144   0.00144   1.91207
   A15        1.91063   0.00133   0.00000   0.00200   0.00200   1.91264
   A16        1.91063  -0.00181   0.00000  -0.00368  -0.00369   1.90694
   A17        1.91063  -0.00226   0.00000  -0.00349  -0.00350   1.90714
   A18        1.91063  -0.00052   0.00000  -0.00094  -0.00095   1.90969
   A19        1.91063   0.00087   0.00000   0.00193   0.00193   1.91257
   A20        1.91063   0.00212   0.00000   0.00346   0.00346   1.91410
   A21        1.91063   0.00072   0.00000   0.00101   0.00101   1.91165
   A22        1.91063  -0.00076   0.00000  -0.00154  -0.00155   1.90908
   A23        1.91063  -0.00017   0.00000  -0.00028  -0.00029   1.91035
   A24        1.91063  -0.00278   0.00000  -0.00459  -0.00459   1.90604
   A25        1.91063   0.00109   0.00000   0.00375   0.00374   1.91437
   A26        1.91063   0.00171   0.00000   0.00295   0.00304   1.91368
   A27        1.91063   0.01711   0.00000   0.02275   0.02275   1.93338
   A28        1.91063   0.00172   0.00000   0.00193   0.00181   1.91245
   A29        1.91063  -0.00695   0.00000  -0.00900  -0.00915   1.90148
   A30        1.91063  -0.01468   0.00000  -0.02239  -0.02244   1.88820
   A31        2.30032   0.10064   0.00000   0.13284   0.13284   2.43315
   A32        1.91063   0.00801   0.00000   0.01073   0.01071   1.92134
   A33        1.91063   0.00367   0.00000   0.00454   0.00453   1.91516
   A34        1.91063   0.00227   0.00000   0.00314   0.00312   1.91375
   A35        1.91063  -0.00648   0.00000  -0.00884  -0.00887   1.90177
   A36        1.91063  -0.00377   0.00000  -0.00437  -0.00440   1.90624
   A37        1.91063  -0.00369   0.00000  -0.00520  -0.00521   1.90543
   A38        2.09440  -0.02436   0.00000  -0.02535  -0.02590   2.06850
   A39        2.09440   0.06932   0.00000   0.07790   0.07735   2.17174
   A40        2.09440  -0.04496   0.00000  -0.05255  -0.05310   2.04130
   A41        2.16328   0.06499   0.00000   0.08578   0.08578   2.24906
    D1        3.14159   0.00548   0.00000   0.00935   0.00933  -3.13226
    D2       -1.04720   0.00084   0.00000   0.00119   0.00119  -1.04600
    D3        1.04720   0.00126   0.00000   0.00162   0.00161   1.04880
    D4       -1.04720   0.00006   0.00000  -0.00013  -0.00011  -1.04731
    D5        1.04720  -0.00457   0.00000  -0.00828  -0.00825   1.03895
    D6        3.14159  -0.00415   0.00000  -0.00786  -0.00784   3.13375
    D7        1.04720   0.00108   0.00000   0.00121   0.00119   1.04839
    D8        3.14159  -0.00356   0.00000  -0.00694  -0.00694   3.13465
    D9       -1.04720  -0.00314   0.00000  -0.00652  -0.00653  -1.05373
   D10       -1.04720  -0.00125   0.00000  -0.00172  -0.00172  -1.04892
   D11        1.04720  -0.00203   0.00000  -0.00320  -0.00319   1.04400
   D12        3.14159  -0.00292   0.00000  -0.00487  -0.00488   3.13672
   D13        3.14159   0.00341   0.00000   0.00645   0.00644  -3.13515
   D14       -1.04720   0.00263   0.00000   0.00497   0.00497  -1.04223
   D15        1.04720   0.00174   0.00000   0.00330   0.00328   1.05048
   D16        1.04720   0.00258   0.00000   0.00547   0.00549   1.05269
   D17        3.14159   0.00180   0.00000   0.00400   0.00402  -3.13757
   D18       -1.04720   0.00091   0.00000   0.00233   0.00234  -1.04486
   D19        1.04720   0.00147   0.00000   0.00317   0.00319   1.05039
   D20       -1.04720   0.00169   0.00000   0.00395   0.00396  -1.04323
   D21        3.14159   0.00114   0.00000   0.00299   0.00301  -3.13858
   D22       -1.04720  -0.00183   0.00000  -0.00315  -0.00316  -1.05036
   D23        3.14159  -0.00161   0.00000  -0.00238  -0.00239   3.13921
   D24        1.04720  -0.00216   0.00000  -0.00334  -0.00334   1.04386
   D25        3.14159   0.00267   0.00000   0.00476   0.00474  -3.13685
   D26        1.04720   0.00289   0.00000   0.00553   0.00552   1.05271
   D27       -1.04720   0.00235   0.00000   0.00457   0.00456  -1.04264
   D28        1.04720  -0.00046   0.00000  -0.00084  -0.00083   1.04636
   D29       -1.04720  -0.00136   0.00000  -0.00226  -0.00226  -1.04945
   D30        3.14159   0.00031   0.00000   0.00062   0.00063  -3.14097
   D31        3.14159   0.00224   0.00000   0.00397   0.00397  -3.13763
   D32        1.04720   0.00134   0.00000   0.00255   0.00255   1.04974
   D33       -1.04720   0.00301   0.00000   0.00543   0.00543  -1.04177
   D34       -1.04720  -0.00168   0.00000  -0.00325  -0.00325  -1.05044
   D35        3.14159  -0.00258   0.00000  -0.00467  -0.00467   3.13693
   D36        1.04720  -0.00091   0.00000  -0.00179  -0.00179   1.04541
   D37        3.14159  -0.00041   0.00000  -0.00064  -0.00061   3.14099
   D38       -1.04720   0.00342   0.00000   0.00583   0.00581  -1.04139
   D39        1.04720  -0.00304   0.00000  -0.00585  -0.00587   1.04133
   D40       -1.04720   0.00100   0.00000   0.00218   0.00221  -1.04499
   D41        1.04720   0.00482   0.00000   0.00864   0.00863   1.05582
   D42       -3.14159  -0.00163   0.00000  -0.00303  -0.00305   3.13854
   D43        1.04720  -0.00174   0.00000  -0.00269  -0.00265   1.04454
   D44        3.14159   0.00209   0.00000   0.00378   0.00376  -3.13783
   D45       -1.04720  -0.00437   0.00000  -0.00790  -0.00791  -1.05511
   D46       -2.98908   0.00093   0.00000   0.00213   0.00218  -2.98689
   D47        1.19971  -0.00663   0.00000  -0.01088  -0.01074   1.18898
   D48       -0.89468   0.00451   0.00000   0.00597   0.00577  -0.88891
   D49        0.98179   0.01409   0.00000   0.03438   0.03438   1.01617
   D50       -2.72001   0.00878   0.00000   0.02111   0.02108  -2.69893
   D51        0.42159  -0.01572   0.00000  -0.03781  -0.03778   0.38381
         Item               Value     Threshold  Converged?
 Maximum Force            0.184066     0.000450     NO 
 RMS     Force            0.026659     0.000300     NO 
 Maximum Displacement     0.408816     0.001800     NO 
 RMS     Displacement     0.101038     0.001200     NO 
 Predicted change in Energy=-7.265330D-02
 GradGradGradGradGradGradGradGradGradGradGradGradGradGradGradGradGradGrad

                          Input orientation:                          
 ---------------------------------------------------------------------
 Center     Atomic      Atomic             Coordinates (Angstroms)
 Number     Number       Type             X           Y           Z
 ---------------------------------------------------------------------
      1          6           0       -2.163254   -0.773400    0.098700
      2          1           0       -1.961450   -1.795430    0.371492
      3          1           0       -3.227124   -0.627282    0.020733
      4          6           0       -1.606632    0.162010    1.191739
      5          1           0       -1.816692    1.184282    0.923679
      6          1           0       -2.084503   -0.067439    2.129554
      7          6           0       -0.085518   -0.022155    1.345421
      8          1           0        0.404045    0.208769    0.416090
      9          1           0        0.128512   -1.042262    1.615727
     10          6           0        0.439169    0.918116    2.442607
     11          1           0       -0.044911    0.688558    3.376352
     12          1           0        0.231443    1.939563    2.174198
     13          7           0        1.900124    0.740859    2.588544
     14          1           0        2.246394    1.356147    3.306336
     15          1           0        2.102475   -0.215204    2.836632
     16          1           0        2.390174    0.955536    1.693017
     17          6           0       -1.513561   -0.473814   -1.265887
     18          1           0       -0.450023   -0.620951   -1.208726
     19          1           0       -1.918215   -1.133632   -2.013646
     20          1           0       -1.715754    0.545831   -1.547175
     21          8           0        5.141396    0.130725    1.095703
     22          6           0        3.900991   -0.008538    1.158171
     23          1           0        3.279892    0.885112    1.300569
     24          8           0        3.307984   -1.116910    1.134363
 ---------------------------------------------------------------------
                    Distance matrix (angstroms):
                    1          2          3          4          5
     1  C    0.000000
     2  H    1.076887   0.000000
     3  H    1.076684   1.757706   0.000000
     4  C    1.542580   2.151806   2.149472   0.000000
     5  H    2.152490   3.033900   2.467062   1.077507   0.000000
     6  H    2.151499   2.468173   2.462952   1.077267   1.758597
     7  C    2.536862   2.759015   3.462754   1.539910   2.151818
     8  H    2.767023   3.100704   3.747089   2.155607   2.478092
     9  H    2.761494   2.546237   3.738516   2.154242   3.036486
    10  C    3.889438   4.173226   4.657835   2.514293   2.732561
    11  H    4.167457   4.344250   4.808128   2.736560   3.066032
    12  H    4.171623   4.691344   4.815371   2.739242   2.515771
    13  N    5.000335   5.124436   5.895264   3.818831   4.096721
    14  H    5.853964   6.020939   6.684952   4.554481   4.713307
    15  H    5.099441   5.008944   6.041831   4.074978   4.580155
    16  H    5.124917   5.315155   6.070904   4.105535   4.282747
    17  C    1.540764   2.151344   2.148311   2.540248   2.763217
    18  H    2.160501   2.482116   3.037087   2.777229   3.110273
    19  H    2.156807   2.475627   2.471503   3.471349   3.743115
    20  H    2.156277   3.036963   2.473614   2.767828   2.554002
    21  O    7.427609   7.394929   8.471261   6.748784   7.039500
    22  C    6.203431   6.179001   7.244765   5.510365   5.845485
    23  H    5.815753   5.959878   6.801953   4.940935   5.119249
    24  O    5.578982   5.367429   6.647371   5.078620   5.621581
                    6          7          8          9         10
     6  H    0.000000
     7  C    2.147755   0.000000
     8  H    3.033994   1.075479   0.000000
     9  H    2.472192   1.076797   1.755029   0.000000
    10  C    2.727314   1.537277   2.147365   2.150190   0.000000
    11  H    2.507184   2.152078   3.032311   2.474998   1.076527
    12  H    3.064907   2.153062   2.473133   3.035419   1.076358
    13  N    4.091610   2.463802   2.690898   2.695274   1.478888
    14  H    4.708300   3.344057   3.614450   3.618833   2.050357
    15  H    4.248833   2.654862   2.987213   2.463974   2.050916
    16  H    4.610832   2.684353   2.476472   3.018656   2.090384
    17  C    3.467007   3.010354   2.640488   3.365001   4.416282
    18  H    3.757926   2.648601   2.014422   2.913716   4.060988
    19  H    4.281416   3.984657   3.619192   4.167708   5.442896
    20  H    3.745718   3.368589   2.908877   3.990902   4.549796
    21  O    7.302173   5.235109   4.786488   5.174489   4.954299
    22  C    6.064090   3.990927   3.581415   3.938215   3.806924
    23  H    5.511016   3.485847   3.083867   3.707464   3.061870
    24  O    5.583073   3.571959   3.272034   3.216571   3.752724
                   11         12         13         14         15
    11  H    0.000000
    12  H    1.756860   0.000000
    13  N    2.099175   2.095965   0.000000
    14  H    2.387605   2.383724   1.006830   0.000000
    15  H    2.391516   2.929608   1.008241   1.646353   0.000000
    16  H    2.972294   2.420736   1.043170   1.668520   1.661703
    17  C    5.005839   4.550122   5.290115   6.196067   5.474784
    18  H    4.785590   4.297069   4.668724   5.618307   4.800500
    19  H    5.990135   5.621708   6.266864   7.200360   6.366684
    20  H    5.201269   4.425233   5.496979   6.317578   5.863089
    21  O    5.693006   5.342536   3.620315   3.843123   3.519310
    22  C    4.580001   4.277030   2.571192   3.035567   2.468725
    23  H    3.924515   3.341876   1.892999   2.305015   2.226319
    24  O    4.419065   4.459640   2.747366   3.458389   2.272454
                   16         17         18         19         20
    16  H    0.000000
    17  C    5.102675   0.000000
    18  H    4.355702   1.075187   0.000000
    19  H    6.055261   1.076219   1.751092   0.000000
    20  H    5.246460   1.076884   1.754423   1.754759   0.000000
    21  O    2.933654   7.087385   6.094209   7.816953   7.360545
    22  C    1.870312   5.950622   4.990849   6.722307   6.258917
    23  H    0.974973   5.604512   4.740997   6.486883   5.760315
    24  O    2.334418   5.424211   4.456306   6.101098   5.932394
                   21         22         23         24
    21  O    0.000000
    22  C    1.249761   0.000000
    23  H    2.018977   1.097566   0.000000
    24  O    2.217992   1.257264   2.009106   0.000000
 Stoichiometry    C6H15NO2
 Framework group  C1[X(C6H15NO2)]
 Deg. of freedom    66
 Full point group                 C1      NOp   1
 Largest Abelian subgroup         C1      NOp   1
 Largest concise Abelian subgroup C1      NOp   1
                         Standard orientation:                         
 ---------------------------------------------------------------------
 Center     Atomic      Atomic             Coordinates (Angstroms)
 Number     Number       Type             X           Y           Z
 ---------------------------------------------------------------------
      1          6           0       -3.320186   -0.493740    0.392574
      2          1           0       -3.117214   -0.766560    1.414365
      3          1           0       -4.364737   -0.255093    0.286705
      4          6           0       -2.481593    0.747255    0.023458
      5          1           0       -2.691514    1.026126   -0.995947
      6          1           0       -2.746896    1.560140    0.678695
      7          6           0       -0.977237    0.453654    0.171893
      8          1           0       -0.698565   -0.353879   -0.481473
      9          1           0       -0.762831    0.176806    1.190164
     10          6           0       -0.168508    1.707624   -0.197890
     11          1           0       -0.440775    2.518348    0.455950
     12          1           0       -0.376281    1.985296   -1.216848
     13          7           0        1.275956    1.424028   -0.055745
     14          1           0        1.807976    2.243779   -0.297965
     15          1           0        1.477426    1.159637    0.896125
     16          1           0        1.561863    0.638192   -0.679383
     17          6           0       -2.980388   -1.681778   -0.527783
     18          1           0       -1.940915   -1.938762   -0.430402
     19          1           0       -3.578359   -2.534383   -0.256226
     20          1           0       -3.185787   -1.417280   -1.551273
     21          8           0        4.058632   -0.870551   -0.369282
     22          6           0        2.858753   -0.600156   -0.147746
     23          1           0        2.334830    0.067228   -0.843989
     24          8           0        2.216998   -0.988817    0.861118
 ---------------------------------------------------------------------
 Rotational constants (GHZ):      2.4443012      0.5592551      0.4829736
 Standard basis: 6-311+G(d) (5D, 7F)
 There are   243 symmetry adapted basis functions of A   symmetry.
 Integral buffers will be    131072 words long.
 Raffenetti 2 integral format.
 Two-electron integral symmetry is turned on.
   243 basis functions,   399 primitive gaussians,   252 cartesian basis functions
    37 alpha electrons       37 beta electrons
       nuclear repulsion energy       464.3539817781 Hartrees.
 NAtoms=   24 NActive=   24 NUniq=   24 SFac= 7.50D-01 NAtFMM=   80 NAOKFM=F Big=F
 One-electron integrals computed using PRISM.
 NBasis=   243 RedAO= T  NBF=   243
 NBsUse=   243 1.00D-06 NBFU=   243
 Initial guess read from the read-write file.
 B after Tr=     0.000000    0.000000    0.000000
         Rot=    1.000000    0.000000    0.000000    0.000000 Ang=   0.00 deg.
 Initial guess orbital symmetries:
       Occupied  (A) (A) (A) (A) (A) (A) (A) (A) (A) (A) (A) (A)
                 (A) (A) (A) (A) (A) (A) (A) (A) (A) (A) (A) (A)
                 (A) (A) (A) (A) (A) (A) (A) (A) (A) (A) (A) (A)
                 (A)
       Virtual   (A) (A) (A) (A) (A) (A) (A) (A) (A) (A) (A) (A)
                 (A) (A) (A) (A) (A) (A) (A) (A) (A) (A) (A) (A)
                 (A) (A) (A) (A) (A) (A) (A) (A) (A) (A) (A) (A)
                 (A) (A) (A) (A) (A) (A) (A) (A) (A) (A) (A) (A)
                 (A) (A) (A) (A) (A) (A) (A) (A) (A) (A) (A) (A)
                 (A) (A) (A) (A) (A) (A) (A) (A) (A) (A) (A) (A)
                 (A) (A) (A) (A) (A) (A) (A) (A) (A) (A) (A) (A)
                 (A) (A) (A) (A) (A) (A) (A) (A) (A) (A) (A) (A)
                 (A) (A) (A) (A) (A) (A) (A) (A) (A) (A) (A) (A)
                 (A) (A) (A) (A) (A) (A) (A) (A) (A) (A) (A) (A)
                 (A) (A) (A) (A) (A) (A) (A) (A) (A) (A) (A) (A)
                 (A) (A) (A) (A) (A) (A) (A) (A) (A) (A) (A) (A)
                 (A) (A) (A) (A) (A) (A) (A) (A) (A) (A) (A) (A)
                 (A) (A) (A) (A) (A) (A) (A) (A) (A) (A) (A) (A)
                 (A) (A) (A) (A) (A) (A) (A) (A) (A) (A) (A) (A)
                 (A) (A) (A) (A) (A) (A) (A) (A) (A) (A) (A) (A)
                 (A) (A) (A) (A) (A) (A) (A) (A) (A) (A) (A) (A)
                 (A) (A)
 Harris functional with IExCor= 1009 diagonalized for initial guess.
 ExpMin= 4.38D-02 ExpMax= 8.59D+03 ExpMxC= 1.30D+03 IAcc=2 IRadAn=         0 AccDes= 0.00D+00
 HarFok:  IExCor= 1009 AccDes= 0.00D+00 IRadAn=         0 IDoV= 1
 ScaDFX=  1.000000  1.000000  1.000000  1.000000
 FoFCou: FMM=F IPFlag=           0 FMFlag=      100000 FMFlg1=           0
         NFxFlg=           0 DoJE=T BraDBF=F KetDBF=T FulRan=T
         Omega=  0.000000  0.000000  1.000000  0.000000  0.000000 ICntrl=     500 IOpCl=  0
         NMat0=    1 NMatS0=    1 NMatT0=    0 NMatD0=    1 NMtDS0=    0 NMtDT0=    0
         I1Cent=           4 NGrid=           0.
 Petite list used in FoFCou.
 Requested convergence on RMS density matrix=1.00D-08 within 128 cycles.
 Requested convergence on MAX density matrix=1.00D-06.
 Requested convergence on             energy=1.00D-06.
 No special actions if energy rises.
 SCF Done:  E(RM062X) =  -442.686204603     A.U. after   13 cycles
             Convg  =    0.9028D-08             -V/T =  2.0025
 Calling FoFJK, ICntrl=      2127 FMM=F ISym2X=0 I1Cent= 0 IOpClX= 0 NMat=1 NMatS=1 NMatT=0.
 ***** Axes restored to original set *****
 -------------------------------------------------------------------
 Center     Atomic                   Forces (Hartrees/Bohr)
 Number     Number              X              Y              Z
 -------------------------------------------------------------------
      1        6           0.016046657    0.018826641   -0.005069418
      2        1          -0.001023878   -0.011093095    0.003530220
      3        1          -0.011036956   -0.001772412    0.000737438
      4        6           0.012477931   -0.018567311   -0.011985447
      5        1          -0.004217471    0.011597335   -0.000988490
      6        1          -0.006407894    0.000879225    0.010327739
      7        6          -0.014018398    0.018304919    0.015258582
      8        1           0.008236905    0.000032462   -0.007242730
      9        1           0.004949998   -0.011152948   -0.000189992
     10        6          -0.010416032   -0.017997845   -0.014874027
     11        1          -0.003117912    0.000334646    0.010190265
     12        1           0.000934850    0.010648439   -0.000155608
     13        7          -0.058418719    0.013591294    0.031051273
     14        1           0.009428076    0.005769871    0.006586773
     15        1           0.011979151   -0.014213673   -0.005950098
     16        1          -0.025381940   -0.001346714    0.018334059
     17        6          -0.010651125   -0.006646753    0.017811480
     18        1           0.009510824   -0.002363312   -0.004604302
     19        1          -0.001964327   -0.004530131   -0.009129501
     20        1          -0.000735316    0.010099370   -0.005132782
     21        8          -0.036108359    0.025670222    0.003434858
     22        6           0.087271634   -0.073442046   -0.021090606
     23        1           0.050664876    0.018577540   -0.040658751
     24        8          -0.028002576    0.028794275    0.009809066
 -------------------------------------------------------------------
 Cartesian Forces:  Max     0.087271634 RMS     0.021207966

 GradGradGradGradGradGradGradGradGradGradGradGradGradGradGradGradGradGrad
 Berny optimization.
 Using GEDIIS/GDIIS optimizer.
 Internal  Forces:  Max     0.086938837 RMS     0.013506897
 Search for a local minimum.
 Step number   2 out of a maximum of  125
 All quantities printed in internal units (Hartrees-Bohrs-Radians)
 Mixed Optimization -- RFO/linear search
 Update second derivatives using D2CorX and points    1    2
 DE= -5.81D-02 DEPred=-7.27D-02 R= 8.00D-01
 SS=  1.41D+00  RLast= 3.00D-01 DXNew= 5.0454D-01 8.9998D-01
 Trust test= 8.00D-01 RLast= 3.00D-01 DXMaxT set to 5.05D-01
 Use linear search instead of GDIIS.
 Linear search step of   0.600 exceeds DXMaxT=   0.505 but not scaled.
 Quartic linear search produced a step of  2.00000.
 Iteration  1 RMS(Cart)=  0.15403877 RMS(Int)=  0.02033402
 Iteration  2 RMS(Cart)=  0.04570830 RMS(Int)=  0.00158116
 Iteration  3 RMS(Cart)=  0.00235205 RMS(Int)=  0.00073243
 Iteration  4 RMS(Cart)=  0.00001334 RMS(Int)=  0.00073242
 Iteration  5 RMS(Cart)=  0.00000001 RMS(Int)=  0.00073242
 Variable       Old X    -DE/DX   Delta X   Delta X   Delta X     New X
                                 (Linear)    (Quad)   (Total)
    R1        2.03502   0.01123   0.02603   0.00000   0.02603   2.06105
    R2        2.03464   0.01061   0.02526   0.00000   0.02526   2.05990
    R3        2.91505  -0.00029   0.00975   0.00000   0.00975   2.92480
    R4        2.91162  -0.00136   0.00289   0.00000   0.00289   2.91451
    R5        2.03619   0.01207   0.02837   0.00000   0.02837   2.06457
    R6        2.03574   0.01165   0.02746   0.00000   0.02746   2.06320
    R7        2.91001  -0.00193  -0.00034   0.00000  -0.00034   2.90967
    R8        2.03236   0.01001   0.02071   0.00000   0.02071   2.05307
    R9        2.03485   0.01150   0.02569   0.00000   0.02569   2.06054
   R10        2.90503  -0.00501  -0.01029   0.00000  -0.01029   2.89474
   R11        2.03434   0.01017   0.02467   0.00000   0.02467   2.05901
   R12        2.03402   0.00995   0.02403   0.00000   0.02403   2.05805
   R13        2.79469   0.01104   0.03359   0.00000   0.03359   2.82828
   R14        1.90263   0.01146   0.02582   0.00000   0.02582   1.92845
   R15        1.90530   0.01442   0.03115   0.00000   0.03115   1.93644
   R16        1.97131   0.04834   0.16316   0.00000   0.16316   2.13446
   R17        1.84243   0.08694   0.38114   0.00000   0.38114   2.22357
   R18        2.03181   0.00948   0.01961   0.00000   0.01961   2.05141
   R19        2.03376   0.00985   0.02351   0.00000   0.02351   2.05727
   R20        2.03502   0.01105   0.02602   0.00000   0.02602   2.06104
   R21        2.36171  -0.03315  -0.03265   0.00000  -0.03265   2.32905
   R22        2.07410   0.02957   0.10418   0.00000   0.10418   2.17828
   R23        2.37589  -0.01237  -0.00429   0.00000  -0.00429   2.37159
    A1        1.90954  -0.00002  -0.00218   0.00000  -0.00258   1.90697
    A2        1.90540  -0.00271  -0.01048   0.00000  -0.01083   1.89456
    A3        1.90696  -0.00213  -0.00735   0.00000  -0.00758   1.89938
    A4        1.90240  -0.00387  -0.01646   0.00000  -0.01637   1.88603
    A5        1.90300  -0.00291  -0.01526   0.00000  -0.01509   1.88791
    A6        1.93638   0.01155   0.05150   0.00000   0.05151   1.98789
    A7        1.90571  -0.00249  -0.00985   0.00000  -0.01015   1.89555
    A8        1.90459  -0.00278  -0.01208   0.00000  -0.01195   1.89264
    A9        1.93331   0.01012   0.04536   0.00000   0.04536   1.97867
   A10        1.90940  -0.00013  -0.00247   0.00000  -0.00277   1.90662
   A11        1.90801  -0.00186  -0.00524   0.00000  -0.00543   1.90259
   A12        1.90268  -0.00293  -0.01590   0.00000  -0.01582   1.88686
   A13        1.91530   0.00184   0.00934   0.00000   0.00936   1.92466
   A14        1.91207   0.00027   0.00288   0.00000   0.00288   1.91496
   A15        1.91264   0.00151   0.00401   0.00000   0.00401   1.91665
   A16        1.90694  -0.00174  -0.00739   0.00000  -0.00745   1.89949
   A17        1.90714  -0.00157  -0.00699   0.00000  -0.00705   1.90009
   A18        1.90969  -0.00033  -0.00189   0.00000  -0.00193   1.90776
   A19        1.91257   0.00167   0.00387   0.00000   0.00386   1.91642
   A20        1.91410   0.00222   0.00693   0.00000   0.00693   1.92103
   A21        1.91165   0.00000   0.00203   0.00000   0.00204   1.91368
   A22        1.90908  -0.00064  -0.00310   0.00000  -0.00316   1.90593
   A23        1.91035  -0.00072  -0.00057   0.00000  -0.00060   1.90975
   A24        1.90604  -0.00255  -0.00918   0.00000  -0.00920   1.89685
   A25        1.91437   0.00375   0.00748   0.00000   0.00740   1.92177
   A26        1.91368   0.00445   0.00609   0.00000   0.00662   1.92030
   A27        1.93338   0.00926   0.04550   0.00000   0.04543   1.97881
   A28        1.91245  -0.00073   0.00363   0.00000   0.00293   1.91538
   A29        1.90148  -0.00453  -0.01830   0.00000  -0.01916   1.88232
   A30        1.88820  -0.01252  -0.04488   0.00000  -0.04514   1.84305
   A31        2.43315   0.03648   0.26567   0.00000   0.26567   2.69883
   A32        1.92134   0.00557   0.02141   0.00000   0.02125   1.94259
   A33        1.91516   0.00273   0.00906   0.00000   0.00898   1.92414
   A34        1.91375   0.00226   0.00623   0.00000   0.00613   1.91988
   A35        1.90177  -0.00462  -0.01773   0.00000  -0.01787   1.88390
   A36        1.90624  -0.00308  -0.00880   0.00000  -0.00898   1.89726
   A37        1.90543  -0.00300  -0.01042   0.00000  -0.01044   1.89499
   A38        2.06850  -0.01574  -0.05179   0.00000  -0.05604   2.01246
   A39        2.17174   0.05414   0.15469   0.00000   0.15033   2.32208
   A40        2.04130  -0.03914  -0.10619   0.00000  -0.11045   1.93085
   A41        2.24906  -0.00521   0.17156   0.00000   0.17156   2.42062
    D1       -3.13226   0.00377   0.01866   0.00000   0.01855  -3.11371
    D2       -1.04600   0.00047   0.00239   0.00000   0.00238  -1.04362
    D3        1.04880   0.00133   0.00321   0.00000   0.00314   1.05195
    D4       -1.04731  -0.00016  -0.00023   0.00000  -0.00016  -1.04747
    D5        1.03895  -0.00346  -0.01650   0.00000  -0.01633   1.02262
    D6        3.13375  -0.00260  -0.01568   0.00000  -0.01557   3.11819
    D7        1.04839   0.00091   0.00238   0.00000   0.00228   1.05067
    D8        3.13465  -0.00239  -0.01389   0.00000  -0.01389   3.12076
    D9       -1.05373  -0.00152  -0.01307   0.00000  -0.01313  -1.06686
   D10       -1.04892  -0.00077  -0.00344   0.00000  -0.00344  -1.05236
   D11        1.04400  -0.00128  -0.00639   0.00000  -0.00637   1.03763
   D12        3.13672  -0.00188  -0.00975   0.00000  -0.00981   3.12691
   D13       -3.13515   0.00226   0.01288   0.00000   0.01282  -3.12233
   D14       -1.04223   0.00175   0.00993   0.00000   0.00989  -1.03234
   D15        1.05048   0.00115   0.00657   0.00000   0.00645   1.05693
   D16        1.05269   0.00175   0.01098   0.00000   0.01108   1.06377
   D17       -3.13757   0.00124   0.00804   0.00000   0.00815  -3.12942
   D18       -1.04486   0.00064   0.00467   0.00000   0.00471  -1.04015
   D19        1.05039   0.00054   0.00638   0.00000   0.00648   1.05687
   D20       -1.04323   0.00137   0.00793   0.00000   0.00804  -1.03519
   D21       -3.13858   0.00068   0.00602   0.00000   0.00613  -3.13245
   D22       -1.05036  -0.00153  -0.00632   0.00000  -0.00635  -1.05671
   D23        3.13921  -0.00070  -0.00477   0.00000  -0.00479   3.13442
   D24        1.04386  -0.00139  -0.00668   0.00000  -0.00670   1.03716
   D25       -3.13685   0.00148   0.00948   0.00000   0.00938  -3.12747
   D26        1.05271   0.00231   0.01103   0.00000   0.01094   1.06366
   D27       -1.04264   0.00162   0.00912   0.00000   0.00904  -1.03360
   D28        1.04636   0.00017  -0.00167   0.00000  -0.00166   1.04471
   D29       -1.04945  -0.00145  -0.00451   0.00000  -0.00451  -1.05396
   D30       -3.14097   0.00032   0.00125   0.00000   0.00126  -3.13970
   D31       -3.13763   0.00238   0.00793   0.00000   0.00791  -3.12972
[...]
   R12        2.07311   0.00003  -0.00005   0.00020   0.00015   2.07326
   R13        2.78784  -0.00007  -0.00015   0.00012  -0.00003   2.78782
   R14        1.91930  -0.00010   0.00005  -0.00025  -0.00021   1.91909
   R15        3.31870   0.00063  -0.00046  -0.01234  -0.01280   3.30590
   R16        1.92078   0.00046   0.00006   0.00114   0.00120   1.92198
   R17        5.60016  -0.00094   0.01075  -0.01936  -0.00860   5.59156
   R18        2.06439   0.00001  -0.00005   0.00012   0.00007   2.06447
   R19        2.06277   0.00000   0.00001  -0.00001   0.00000   2.06277
   R20        2.06794  -0.00001  -0.00005   0.00024   0.00019   2.06813
   R21        2.25766  -0.00001   0.00003  -0.00116  -0.00113   2.25653
   R22        2.09227  -0.00051   0.00007   0.00238   0.00245   2.09472
   R23        2.50180   0.00085  -0.00011   0.00352   0.00341   2.50521
    A1        1.85487   0.00003   0.00037  -0.00032   0.00004   1.85491
    A2        1.90538   0.00002  -0.00005   0.00026   0.00022   1.90560
    A3        1.91213  -0.00005  -0.00020   0.00021   0.00000   1.91213
    A4        1.89764  -0.00001  -0.00009  -0.00040  -0.00049   1.89715
    A5        1.90940  -0.00002  -0.00012  -0.00037  -0.00049   1.90891
    A6        1.98019   0.00004   0.00011   0.00056   0.00068   1.98087
    A7        1.90987   0.00000   0.00012  -0.00049  -0.00037   1.90950
    A8        1.90293   0.00002   0.00004  -0.00049  -0.00045   1.90248
    A9        1.98073   0.00001   0.00034  -0.00015   0.00019   1.98091
   A10        1.85570   0.00000  -0.00004   0.00053   0.00048   1.85618
   A11        1.90750   0.00001  -0.00012   0.00022   0.00010   1.90760
   A12        1.90295  -0.00003  -0.00036   0.00043   0.00007   1.90303
   A13        1.91855   0.00001   0.00013   0.00009   0.00022   1.91877
   A14        1.91641  -0.00004  -0.00019   0.00070   0.00051   1.91692
   A15        1.95489   0.00004  -0.00097   0.00151   0.00053   1.95543
   A16        1.86280   0.00002   0.00027  -0.00039  -0.00012   1.86269
   A17        1.90335  -0.00004   0.00045  -0.00111  -0.00066   1.90269
   A18        1.90547   0.00001   0.00037  -0.00090  -0.00053   1.90494
   A19        1.91297   0.00005  -0.00032   0.00113   0.00081   1.91377
   A20        1.91859  -0.00001  -0.00034   0.00108   0.00073   1.91933
   A21        1.93024  -0.00009   0.00040  -0.00255  -0.00215   1.92809
   A22        1.87273   0.00000   0.00029   0.00094   0.00123   1.87396
   A23        1.87478   0.00000  -0.00021  -0.00066  -0.00087   1.87392
   A24        1.95287   0.00007   0.00016   0.00018   0.00034   1.95321
   A25        1.93043   0.00001  -0.00019   0.00064   0.00047   1.93090
   A26        1.89612  -0.00042  -0.00421  -0.00033  -0.00451   1.89162
   A27        1.91985  -0.00036  -0.00001  -0.00119  -0.00120   1.91865
   A28        1.91077   0.00018  -0.00598   0.00197  -0.00397   1.90680
   A29        1.85365   0.00023   0.00028   0.00176   0.00204   1.85568
   A30        1.95314   0.00038   0.01011  -0.00278   0.00731   1.96045
   A31        1.50460  -0.00197  -0.00775   0.01162   0.00387   1.50847
   A32        1.95056   0.00005   0.00013   0.00012   0.00024   1.95081
   A33        1.94004   0.00001  -0.00002   0.00006   0.00004   1.94008
   A34        1.93808  -0.00001   0.00025  -0.00022   0.00003   1.93811
   A35        1.87119  -0.00002   0.00000  -0.00033  -0.00033   1.87086
   A36        1.88131  -0.00003  -0.00034   0.00072   0.00038   1.88169
   A37        1.87939   0.00000  -0.00004  -0.00035  -0.00039   1.87900
   A38        2.13139   0.00082   0.00031   0.00072   0.00102   2.13241
   A39        2.17282   0.00084   0.00018   0.00061   0.00079   2.17361
   A40        1.97898  -0.00166  -0.00049  -0.00132  -0.00181   1.97717
   A41        2.02157  -0.00416   0.00239  -0.00192   0.00047   2.02205
    D1       -3.05243  -0.00004  -0.00275   0.00261  -0.00015  -3.05257
    D2       -1.02947  -0.00004  -0.00272   0.00269  -0.00002  -1.02949
    D3        1.09519  -0.00006  -0.00293   0.00279  -0.00013   1.09505
    D4       -1.03585   0.00000  -0.00239   0.00215  -0.00025  -1.03609
    D5        0.98711   0.00000  -0.00236   0.00223  -0.00013   0.98698
    D6        3.11177  -0.00002  -0.00257   0.00233  -0.00023   3.11153
    D7        1.09288  -0.00002  -0.00254   0.00176  -0.00078   1.09210
    D8        3.11583  -0.00001  -0.00250   0.00185  -0.00065   3.11518
    D9       -1.04270  -0.00003  -0.00271   0.00195  -0.00076  -1.04346
   D10       -0.97996  -0.00002  -0.00077   0.00738   0.00660  -0.97336
   D11        1.10991  -0.00001  -0.00070   0.00708   0.00638   1.11630
   D12       -3.08137  -0.00001  -0.00060   0.00653   0.00593  -3.07544
   D13       -3.00684  -0.00001  -0.00103   0.00786   0.00683  -3.00001
   D14       -0.91696   0.00000  -0.00095   0.00756   0.00661  -0.91035
   D15        1.17494   0.00000  -0.00085   0.00701   0.00616   1.18109
   D16        1.15418  -0.00001  -0.00090   0.00826   0.00736   1.16154
   D17       -3.03913   0.00000  -0.00083   0.00796   0.00713  -3.03199
   D18       -0.94723   0.00000  -0.00073   0.00741   0.00668  -0.94055
   D19        1.17855  -0.00002  -0.00213   0.00196  -0.00018   1.17837
   D20       -0.86570  -0.00002  -0.00243   0.00196  -0.00047  -0.86617
   D21       -2.98577  -0.00004  -0.00212   0.00161  -0.00051  -2.98628
   D22       -0.95834  -0.00003  -0.00244   0.00253   0.00009  -0.95824
   D23       -3.00259  -0.00003  -0.00273   0.00254  -0.00020  -3.00279
   D24        1.16053  -0.00005  -0.00243   0.00219  -0.00024   1.16029
   D25       -2.97999  -0.00001  -0.00212   0.00154  -0.00058  -2.98057
   D26        1.25894  -0.00001  -0.00242   0.00155  -0.00087   1.25807
   D27       -0.86113  -0.00003  -0.00211   0.00120  -0.00091  -0.86204
   D28        1.14528  -0.00001  -0.00249  -0.00227  -0.00475   1.14052
   D29       -0.90904  -0.00003  -0.00245  -0.00472  -0.00717  -0.91621
   D30       -3.07410  -0.00005  -0.00269  -0.00393  -0.00662  -3.08072
   D31       -3.01032   0.00000  -0.00265  -0.00193  -0.00458  -3.01490
   D32        1.21855  -0.00002  -0.00261  -0.00438  -0.00700   1.21155
   D33       -0.94651  -0.00004  -0.00285  -0.00359  -0.00645  -0.95296
   D34       -0.98107   0.00000  -0.00186  -0.00352  -0.00538  -0.98646
   D35       -3.03539  -0.00001  -0.00182  -0.00597  -0.00780  -3.04319
   D36        1.08274  -0.00003  -0.00207  -0.00518  -0.00725   1.07548
   D37       -3.07860  -0.00003  -0.00642  -0.00534  -0.01175  -3.09035
   D38       -0.98097  -0.00007  -0.01641  -0.00273  -0.01916  -1.00013
   D39        1.16238  -0.00009  -0.00664  -0.00715  -0.01379   1.14858
   D40       -0.99164  -0.00003  -0.00670  -0.00584  -0.01253  -1.00417
   D41        1.10599  -0.00007  -0.01669  -0.00323  -0.01994   1.08605
   D42       -3.03385  -0.00009  -0.00692  -0.00766  -0.01457  -3.04842
   D43        1.05933   0.00000  -0.00638  -0.00500  -0.01138   1.04795
   D44       -3.12623  -0.00004  -0.01637  -0.00240  -0.01879   3.13816
   D45       -0.98288  -0.00006  -0.00661  -0.00682  -0.01342  -0.99631
   D46       -1.78527  -0.00033  -0.00701  -0.01143  -0.01842  -1.80369
   D47        2.40837  -0.00028  -0.00694  -0.01258  -0.01952   2.38885
   D48        0.32415  -0.00086  -0.00556  -0.01451  -0.02010   0.30405
   D49       -0.40058  -0.00057   0.01812   0.01807   0.03620  -0.36439
   D50       -3.07738  -0.00024  -0.01173  -0.00578  -0.01750  -3.09489
   D51        0.06483  -0.00044  -0.01101  -0.00604  -0.01706   0.04777
         Item               Value     Threshold  Converged?
 Maximum Force            0.004163     0.000450     NO 
 RMS     Force            0.000511     0.000300     NO 
 Maximum Displacement     0.084305     0.001800     NO 
 RMS     Displacement     0.018321     0.001200     NO 
 Predicted change in Energy=-2.486222D-05
 GradGradGradGradGradGradGradGradGradGradGradGradGradGradGradGradGradGrad

                          Input orientation:                          
 ---------------------------------------------------------------------
 Center     Atomic      Atomic             Coordinates (Angstroms)
 Number     Number       Type             X           Y           Z
 ---------------------------------------------------------------------
      1          6           0       -1.777594   -0.848032   -0.053139
      2          1           0       -1.268259   -1.813611    0.035972
      3          1           0       -2.849342   -1.067175   -0.071423
      4          6           0       -1.471123   -0.002183    1.183651
      5          1           0       -2.051153    0.928002    1.141949
      6          1           0       -1.812164   -0.538705    2.076414
      7          6           0        0.011129    0.333652    1.339965
      8          1           0        0.328265    1.009494    0.536392
      9          1           0        0.611283   -0.577773    1.240675
     10          6           0        0.310589    0.984582    2.682362
     11          1           0        0.119277    0.270824    3.487821
     12          1           0       -0.355247    1.842240    2.839736
     13          7           0        1.732467    1.369356    2.763444
     14          1           0        1.945973    1.760049    3.676183
     15          1           0        2.706535   -0.060796    2.505988
     16          1           0        1.932969    2.100553    2.085519
     17          6           0       -1.375312   -0.176966   -1.364665
     18          1           0       -0.291445   -0.069163   -1.448913
     19          1           0       -1.709310   -0.760598   -2.224515
     20          1           0       -1.818417    0.820253   -1.447967
     21          8           0        4.071151   -1.834768    0.460896
     22          6           0        3.507923   -0.930151    0.999715
     23          1           0        3.198825   -0.017247    0.452191
     24          8           0        3.187942   -0.903345    2.285940
 ---------------------------------------------------------------------
                    Distance matrix (angstroms):
                    1          2          3          4          5
     1  C    0.000000
     2  H    1.095311   0.000000
     3  H    1.094075   1.751720   0.000000
     4  C    1.529391   2.153972   2.146836   0.000000
     5  H    2.158093   3.058194   2.467814   1.097004   0.000000
     6  H    2.152179   2.466703   2.442995   1.095988   1.755440
     7  C    2.556687   2.819215   3.483766   1.527838   2.155335
     8  H    2.869250   3.281651   3.844370   2.163385   2.456618
     9  H    2.730152   2.551722   3.733234   2.161243   3.060339
    10  C    3.898968   4.162455   4.666712   2.528703   2.820266
    11  H    4.169935   4.264434   4.824019   2.813024   3.262785
    12  H    4.198734   4.696801   4.812490   2.718399   2.567959
    13  N    5.017019   5.155070   5.913217   3.826206   4.140027
    14  H    5.880041   6.029384   6.710648   4.582000   4.805379
    15  H    5.222670   4.997232   6.206739   4.382332   5.047170
    16  H    5.199643   5.456114   6.128409   4.101549   4.258924
    17  C    1.527174   2.156815   2.153534   2.556099   2.821493
    18  H    2.182536   2.490411   3.071863   2.885571   3.286864
    19  H    2.174208   2.532422   2.455498   3.499646   3.781707
    20  H    2.174946   3.072782   2.553442   2.778926   2.602584
    21  O    5.953629   5.356334   6.983250   5.881968   6.751248
    22  C    5.389985   4.951891   6.448328   5.068122   5.863130
    23  H    5.070534   4.832701   6.160913   4.726910   5.378804
    24  O    5.489162   5.074315   6.483270   4.871757   5.666627
                    6          7          8          9         10
     6  H    0.000000
     7  C    2.151223   0.000000
     8  H    3.057781   1.096844   0.000000
     9  H    2.563802   1.095782   1.759412   0.000000
    10  C    2.682099   1.521649   2.146188   2.147052   0.000000
    11  H    2.525444   2.151495   3.049630   2.451908   1.093076
    12  H    2.893815   2.158561   2.542843   3.057392   1.097124
    13  N    4.083762   2.462109   2.657262   2.714257   1.475250
    14  H    4.686909   3.352036   3.610900   3.630222   2.064827
    15  H    4.564161   2.963176   3.268179   2.501672   2.620015
    16  H    4.581679   2.715006   2.482997   3.103876   2.057602
    17  C    3.487509   3.081878   2.814939   3.300758   4.535403
    18  H    3.867943   2.834017   2.342857   2.882271   4.305840
    19  H    4.307877   4.106436   3.861030   4.174460   5.585973
    20  H    3.777310   3.369954   2.929461   3.884162   4.649655
    21  O    6.237233   4.685999   4.701566   3.762815   5.198604
    22  C    5.442043   3.733703   3.753281   2.927927   4.089065
    23  H    5.293395   3.327564   3.049820   2.762475   3.784077
    24  O    5.017760   3.537961   3.859744   2.799598   3.464185
                   11         12         13         14         15
    11  H    0.000000
    12  H    1.764805   0.000000
    13  N    2.081797   2.141960   0.000000
    14  H    2.364337   2.449900   1.015539   0.000000
    15  H    2.787091   3.620421   1.749408   2.294186   0.000000
    16  H    2.933230   2.423118   1.017069   1.626752   2.333801
    17  C    5.097149   4.774381   5.393578   6.339803   5.626449
    18  H    4.965444   4.695748   4.889735   5.883763   4.962781
    19  H    6.085914   5.852769   6.423572   7.384646   6.508999
    20  H    5.330904   4.644322   5.535908   6.427345   6.073319
    21  O    5.404915   6.226739   4.586675   5.270405   3.031758
    22  C    4.372178   5.098619   3.398634   4.103699   1.914904
    23  H    4.333781   4.667923   3.068349   3.888772   2.112423
    24  O    3.498557   4.516539   2.740728   3.250990   0.995019
                   16         17         18         19         20
    16  H    0.000000
    17  C    5.294864   0.000000
    18  H    4.706155   1.092469   0.000000
    19  H    6.326830   1.091570   1.757835   0.000000
    20  H    5.310141   1.094407   1.767119   1.764659   0.000000
    21  O    4.764239   5.978708   5.079072   6.463668   6.736462
    22  C    3.583939   5.477551   4.601334   6.135465   6.117595
    23  H    2.958924   4.924348   3.974780   5.639780   5.429984
    24  O    3.261676   5.888788   5.172148   6.659404   6.478926
                   21         22         23         24
    21  O    0.000000
    22  C    1.194104   0.000000
    23  H    2.016038   1.108475   0.000000
    24  O    2.231232   1.325700   2.036645   0.000000
 Stoichiometry    C6H15NO2
 Framework group  C1[X(C6H15NO2)]
 Deg. of freedom    66
 Full point group                 C1      NOp   1
 Largest Abelian subgroup         C1      NOp   1
 Largest concise Abelian subgroup C1      NOp   1
                         Standard orientation:                         
 ---------------------------------------------------------------------
 Center     Atomic      Atomic             Coordinates (Angstroms)
 Number     Number       Type             X           Y           Z
 ---------------------------------------------------------------------
      1          6           0        2.785791   -0.883491   -0.597107
      2          1           0        2.165691   -1.480012   -1.274857
      3          1           0        3.781037   -0.840947   -1.049519
      4          6           0        2.221902    0.535970   -0.518382
      5          1           0        2.890663    1.160822    0.086378
      6          1           0        2.215439    0.973658   -1.523160
      7          6           0        0.809924    0.599224    0.061797
      8          1           0        0.828296    0.318763    1.122020
      9          1           0        0.166547   -0.128263   -0.445713
     10          6           0        0.198591    1.986068   -0.073675
     11          1           0        0.056136    2.223300   -1.131145
     12          1           0        0.880568    2.738383    0.341789
     13          7           0       -1.128022    2.030281    0.570146
     14          1           0       -1.559024    2.940497    0.439516
     15          1           0       -2.137714    0.803546   -0.162022
     16          1           0       -1.030513    1.901648    1.574325
     17          6           0        2.875316   -1.579168    0.759461
     18          1           0        1.886539   -1.770594    1.182740
     19          1           0        3.382379   -2.542181    0.675689
     20          1           0        3.434591   -0.970801    1.476977
     21          8           0       -3.020678   -2.095798   -0.086290
     22          6           0       -2.544868   -1.034944    0.185884
     23          1           0       -1.982974   -0.863669    1.125914
     24          8           0       -2.624501    0.043539   -0.580938
 ---------------------------------------------------------------------
 Rotational constants (GHZ):      1.5919595      0.6971384      0.5262051
 Standard basis: 6-311+G(d) (5D, 7F)
 There are   243 symmetry adapted basis functions of A   symmetry.
 Integral buffers will be    131072 words long.
 Raffenetti 2 integral format.
 Two-electron integral symmetry is turned on.
   243 basis functions,   399 primitive gaussians,   252 cartesian basis functions
    37 alpha electrons       37 beta electrons
       nuclear repulsion energy       461.6417075361 Hartrees.
 NAtoms=   24 NActive=   24 NUniq=   24 SFac= 7.50D-01 NAtFMM=   80 NAOKFM=F Big=F
 One-electron integrals computed using PRISM.
 NBasis=   243 RedAO= T  NBF=   243
 NBsUse=   243 1.00D-06 NBFU=   243
 Initial guess read from the read-write file.
 B after Tr=     0.000000    0.000000    0.000000
         Rot=    1.000000    0.000000    0.000000    0.000000 Ang=   0.00 deg.
 Initial guess orbital symmetries:
       Occupied  (A) (A) (A) (A) (A) (A) (A) (A) (A) (A) (A) (A)
                 (A) (A) (A) (A) (A) (A) (A) (A) (A) (A) (A) (A)
                 (A) (A) (A) (A) (A) (A) (A) (A) (A) (A) (A) (A)
                 (A)
       Virtual   (A) (A) (A) (A) (A) (A) (A) (A) (A) (A) (A) (A)
                 (A) (A) (A) (A) (A) (A) (A) (A) (A) (A) (A) (A)
                 (A) (A) (A) (A) (A) (A) (A) (A) (A) (A) (A) (A)
                 (A) (A) (A) (A) (A) (A) (A) (A) (A) (A) (A) (A)
                 (A) (A) (A) (A) (A) (A) (A) (A) (A) (A) (A) (A)
                 (A) (A) (A) (A) (A) (A) (A) (A) (A) (A) (A) (A)
                 (A) (A) (A) (A) (A) (A) (A) (A) (A) (A) (A) (A)
                 (A) (A) (A) (A) (A) (A) (A) (A) (A) (A) (A) (A)
                 (A) (A) (A) (A) (A) (A) (A) (A) (A) (A) (A) (A)
                 (A) (A) (A) (A) (A) (A) (A) (A) (A) (A) (A) (A)
                 (A) (A) (A) (A) (A) (A) (A) (A) (A) (A) (A) (A)
                 (A) (A) (A) (A) (A) (A) (A) (A) (A) (A) (A) (A)
                 (A) (A) (A) (A) (A) (A) (A) (A) (A) (A) (A) (A)
                 (A) (A) (A) (A) (A) (A) (A) (A) (A) (A) (A) (A)
                 (A) (A) (A) (A) (A) (A) (A) (A) (A) (A) (A) (A)
                 (A) (A) (A) (A) (A) (A) (A) (A) (A) (A) (A) (A)
                 (A) (A) (A) (A) (A) (A) (A) (A) (A) (A) (A) (A)
                 (A) (A)
 Harris functional with IExCor= 1009 diagonalized for initial guess.
 ExpMin= 4.38D-02 ExpMax= 8.59D+03 ExpMxC= 1.30D+03 IAcc=2 IRadAn=         0 AccDes= 0.00D+00
 HarFok:  IExCor= 1009 AccDes= 0.00D+00 IRadAn=         0 IDoV= 1
 ScaDFX=  1.000000  1.000000  1.000000  1.000000
 FoFCou: FMM=F IPFlag=           0 FMFlag=      100000 FMFlg1=           0
         NFxFlg=           0 DoJE=T BraDBF=F KetDBF=T FulRan=T
         Omega=  0.000000  0.000000  1.000000  0.000000  0.000000 ICntrl=     500 IOpCl=  0
         NMat0=    1 NMatS0=    1 NMatT0=    0 NMatD0=    1 NMtDS0=    0 NMtDT0=    0
         I1Cent=           4 NGrid=           0.
 Petite list used in FoFCou.
 Requested convergence on RMS density matrix=1.00D-08 within 128 cycles.
 Requested convergence on MAX density matrix=1.00D-06.
 Requested convergence on             energy=1.00D-06.
 No special actions if energy rises.
