 Entering Gaussian System, Link 0=g09
 Input=CH2_M062X_S.com
 Output=CH2_M062X_S.log
 Initial command:
 /sw/contrib/gaussian/g09/E01/g09/l1.exe "/scr/Gau-783.inp" -scrdir="/scr/"
 Entering Link 1 = /sw/contrib/gaussian/g09/E01/g09/l1.exe PID=       784.
  
 Copyright (c) 1988,1990,1992,1993,1995,1998,2003,2009,2015,
            Gaussian, Inc.  All Rights Reserved.
  
 This is part of the Gaussian(R) 09 program.  It is based on
 the Gaussian(R) 03 system (copyright 2003, Gaussian, Inc.),
 the Gaussian(R) 98 system (copyright 1998, Gaussian, Inc.),
 the Gaussian(R) 94 system (copyright 1995, Gaussian, Inc.),
 the Gaussian 92(TM) system (copyright 1992, Gaussian, Inc.),
 the Gaussian 90(TM) system (copyright 1990, Gaussian, Inc.),
 the Gaussian 88(TM) system (copyright 1988, Gaussian, Inc.),
 the Gaussian 86(TM) system (copyright 1986, Carnegie Mellon
 University), and the Gaussian 82(TM) system (copyright 1983,
 Carnegie Mellon University). Gaussian is a federally registered
 trademark of Gaussian, Inc.
  
 This software contains proprietary and confidential information,
 including trade secrets, belonging to Gaussian, Inc.
  
 This software is provided under written license and may be
 used, copied, transmitted, or stored only in accord with that
 written license.
  
 The following legend is applicable only to US Government
 contracts under FAR:
  
                    RESTRICTED RIGHTS LEGEND
  
 Use, reproduction and disclosure by the US Government is
 subject to restrictions as set forth in subparagraphs (a)
 and (c) of the Commercial Computer Software - Restricted
 Rights clause in FAR 52.227-19.
  
 Gaussian, Inc.
 340 Quinnipiac St., Bldg. 40, Wallingford CT 06492
  
  
 ---------------------------------------------------------------
 Warning -- This program may not be used in any manner that
 competes with the business of Gaussian, Inc. or will provide
 assistance to any competitor of Gaussian, Inc.  The licensee
 of this program is prohibited from giving any competitor of
 Gaussian, Inc. access to this program.  By using this program,
 the user acknowledges that Gaussian, Inc. is engaged in the
 business of creating and licensing software in the field of
 computational chemistry and represents and warrants to the
 licensee that it is not a competitor of Gaussian, Inc. and that
 it will not use this program in any manner prohibited above.
 ---------------------------------------------------------------
  

 Cite this work as:
 Gaussian 09, Revision E.01,
 M. J. Frisch, G. W. Trucks, H. B. Schlegel, G. E. Scuseria, 
 M. A. Robb, J. R. Cheeseman, G. Scalmani, V. Barone, B. Mennucci, 
 G. A. Petersson, H. Nakatsuji, M. Caricato, X. Li, H. P. Hratchian, 
 A. F. Izmaylov, J. Bloino, G. Zheng, J. L. Sonnenberg, M. Hada, 
 M. Ehara, K. Toyota, R. Fukuda, J. Hasegawa, M. Ishida, T. Nakajima, 
 Y. Honda, O. Kitao, H. Nakai, T. Vreven, J. A. Montgomery, Jr., 
 J. E. Peralta, F. Ogliaro, M. Bearpark, J. J. Heyd, E. Brothers, 
 K. N. Kudin, V. N. Staroverov, T. Keith, R. Kobayashi, J. Normand, 
 K. Raghavachari, A. Rendell, J. C. Burant, S. S. Iyengar, J. Tomasi, 
 M. Cossi, N. Rega, J. M. Millam, M. Klene, J. E. Knox, J. B. Cross, 
 V. Bakken, C. Adamo, J. Jaramillo, R. Gomperts, R. E. Stratmann, 
 O. Yazyev, A. J. Austin, R. Cammi, C. Pomelli, J. W. Ochterski, 
 R. L. Martin, K. Morokuma, V. G. Zakrzewski, G. A. Voth, 
 P. Salvador, J. J. Dannenberg, S. Dapprich, A. D. Daniels, 
 O. Farkas, J. B. Foresman, J. V. Ortiz, J. Cioslowski, 
 and D. J. Fox, Gaussian, Inc., Wallingford CT, 2013.
 
 ******************************************
 Gaussian 09:  ES64L-G09RevE.01 30-Nov-2015
                24-Feb-2017 
 ******************************************
 %NProcShared=8
 Will use up to    8 processors via shared memory.
 -------------------
 #n M062X/STO-3G Opt
 -------------------
 1/14=-1,18=20,19=15,26=3,38=1/1,3;
 2/9=110,12=2,17=6,18=5,40=1/2;
 3/6=3,11=2,16=1,25=1,30=1,71=1,74=-55/1,2,3;
 4//1;
 5/5=2,38=5/2;
 6/7=2,8=2,9=2,10=2,28=1/1;
 7//1,2,3,16;
 1/14=-1,18=20,19=15,26=3/3(2);
 2/9=110/2;
 99//99;
 2/9=110/2;
 3/6=3,11=2,16=1,25=1,30=1,71=1,74=-55/1,2,3;
 4/5=5,16=3,69=1/1;
 5/5=2,38=5/2;
 7//1,2,3,16;
 1/14=-1,18=20,19=15,26=3/3(-5);
 2/9=110/2;
 6/7=2,8=2,9=2,10=2,19=2,28=1/1;
 99/9=1/99;
 -----
 Title
 -----
 Symbolic Z-matrix:
 Charge =  0 Multiplicity = 1
 C                    -0.74586  -1.17255   1.55783 
 C                     0.44906  -0.84175   1.09189 
 H                    -0.85261  -1.84945   2.40196 
 H                    -1.65368  -0.77653   1.10932 
 H                     1.35689  -1.23777   1.54039 
 H                     0.55581  -0.16485   0.24776 
 

 GradGradGradGradGradGradGradGradGradGradGradGradGradGradGradGradGradGrad
 Berny optimization.
 Initialization pass.
                           ----------------------------
                           !    Initial Parameters    !
                           ! (Angstroms and Degrees)  !
 --------------------------                            --------------------------
 ! Name  Definition              Value          Derivative Info.                !
 --------------------------------------------------------------------------------
 ! R1    R(1,2)                  1.3245         estimate D2E/DX2                !
 ! R2    R(1,3)                  1.0873         estimate D2E/DX2                !
 ! R3    R(1,4)                  1.0873         estimate D2E/DX2                !
 ! R4    R(2,5)                  1.0873         estimate D2E/DX2                !
 ! R5    R(2,6)                  1.0873         estimate D2E/DX2                !
 ! A1    A(2,1,3)              121.1431         estimate D2E/DX2                !
 ! A2    A(2,1,4)              121.1433         estimate D2E/DX2                !
 ! A3    A(3,1,4)              117.7137         estimate D2E/DX2                !
 ! A4    A(1,2,5)              121.1439         estimate D2E/DX2                !
 ! A5    A(1,2,6)              121.1431         estimate D2E/DX2                !
 ! A6    A(5,2,6)              117.713          estimate D2E/DX2                !
 ! D1    D(3,1,2,5)              0.0002         estimate D2E/DX2                !
 ! D2    D(3,1,2,6)            180.0            estimate D2E/DX2                !
 ! D3    D(4,1,2,5)           -179.9996         estimate D2E/DX2                !
 ! D4    D(4,1,2,6)              0.0002         estimate D2E/DX2                !
 --------------------------------------------------------------------------------
 Trust Radius=3.00D-01 FncErr=1.00D-07 GrdErr=1.00D-06
 Number of steps in this run=     25 maximum allowed number of steps=    100.
 GradGradGradGradGradGradGradGradGradGradGradGradGradGradGradGradGradGrad

                          Input orientation:                          
 ---------------------------------------------------------------------
 Center     Atomic      Atomic             Coordinates (Angstroms)
 Number     Number       Type             X           Y           Z
 ---------------------------------------------------------------------
      1          6           0       -0.745860   -1.172550    1.557830
      2          6           0        0.449060   -0.841750    1.091890
      3          1           0       -0.852610   -1.849450    2.401960
      4          1           0       -1.653680   -0.776530    1.109320
      5          1           0        1.356890   -1.237770    1.540390
      6          1           0        0.555810   -0.164850    0.247760
 ---------------------------------------------------------------------
                    Distance matrix (angstroms):
                    1          2          3          4          5
     1  C    0.000000
     2  C    1.324524   0.000000
     3  H    1.087265   2.103827   0.000000
     4  H    1.087258   2.103823   1.861126   0.000000
     5  H    2.103833   1.087262   2.449152   3.076052   0.000000
     6  H    2.103827   1.087265   3.076053   2.449139   1.861123
                    6
     6  H    0.000000
 Stoichiometry    C2H4
 Framework group  C1[X(C2H4)]
 Deg. of freedom    12
 Full point group                 C1      NOp   1
 Largest Abelian subgroup         C1      NOp   1
 Largest concise Abelian subgroup C1      NOp   1
                         Standard orientation:                         
 ---------------------------------------------------------------------
 Center     Atomic      Atomic             Coordinates (Angstroms)
 Number     Number       Type             X           Y           Z
 ---------------------------------------------------------------------
      1          6           0        0.662263    0.000001    0.000000
      2          6           0       -0.662261   -0.000001    0.000000
      3          1           0        1.224572   -0.930565    0.000000
      4          1           0        1.224569    0.930560    0.000003
      5          1           0       -1.224580   -0.930558    0.000003
      6          1           0       -1.224570    0.930565    0.000000
 ---------------------------------------------------------------------
 Rotational constants (GHZ):    144.7709037     30.4970117     25.1904631
 Standard basis: STO-3G (5D, 7F)
 There are    14 symmetry adapted cartesian basis functions of A   symmetry.
 There are    14 symmetry adapted basis functions of A   symmetry.
    14 basis functions,    42 primitive gaussians,    14 cartesian basis functions
     8 alpha electrons        8 beta electrons
       nuclear repulsion energy        33.4453569118 Hartrees.
 NAtoms=    6 NActive=    6 NUniq=    6 SFac= 1.00D+00 NAtFMM=   60 NAOKFM=F Big=F
 Integral buffers will be    131072 words long.
 Raffenetti 2 integral format.
 Two-electron integral symmetry is turned on.
 One-electron integrals computed using PRISM.
 NBasis=    14 RedAO= T EigKep=  1.86D-01  NBF=    14
 NBsUse=    14 1.00D-06 EigRej= -1.00D+00 NBFU=    14
 ExpMin= 1.69D-01 ExpMax= 7.16D+01 ExpMxC= 7.16D+01 IAcc=1 IRadAn=         1 AccDes= 0.00D+00
 Harris functional with IExCor= 1009 and IRadAn=       1 diagonalized for initial guess.
 HarFok:  IExCor= 1009 AccDes= 0.00D+00 IRadAn=         1 IDoV= 1 UseB2=F ITyADJ=14
 ICtDFT=  3500011 ScaDFX=  1.000000  1.000000  1.000000  1.000000
 FoFCou: FMM=F IPFlag=           0 FMFlag=      100000 FMFlg1=           0
         NFxFlg=           0 DoJE=T BraDBF=F KetDBF=T FulRan=T
         wScrn=  0.000000 ICntrl=     500 IOpCl=  0 I1Cent=   200000004 NGrid=           0
         NMat0=    1 NMatS0=      1 NMatT0=    0 NMatD0=    1 NMtDS0=    0 NMtDT0=    0
 Petite list used in FoFCou.
 Keep R1 ints in memory in canonical form, NReq=885538.
 Requested convergence on RMS density matrix=1.00D-08 within 128 cycles.
 Requested convergence on MAX density matrix=1.00D-06.
 Requested convergence on             energy=1.00D-06.
 No special actions if energy rises.
 Integral accuracy reduced to 1.0D-05 until final iterations.
 Initial convergence to 1.0D-05 achieved.  Increase integral accuracy.
 SCF Done:  E(RM062X) =  -77.6084801393     A.U. after   11 cycles
            NFock= 11  Conv=0.15D-08     -V/T= 2.0138

 **********************************************************************

            Population analysis using the SCF density.

 **********************************************************************

 Orbital symmetries:
       Occupied  (A) (A) (A) (A) (A) (A) (A) (A)
       Virtual   (A) (A) (A) (A) (A) (A)
 The electronic state is 1-A.
 Alpha  occ. eigenvalues --  -10.36063 -10.36050  -0.80975  -0.61691  -0.50554
 Alpha  occ. eigenvalues --   -0.43577  -0.37884  -0.27377
 Alpha virt. eigenvalues --    0.17907   0.46116   0.51384   0.52157   0.73612
 Alpha virt. eigenvalues --    0.75900
          Condensed to atoms (all electrons):
               1          2          3          4          5          6
     1  C    4.816928   0.603206   0.391269   0.391271  -0.025722  -0.025722
     2  C    0.603206   4.816928  -0.025722  -0.025722   0.391270   0.391269
     3  H    0.391269  -0.025722   0.584647  -0.022738  -0.005181   0.002111
     4  H    0.391271  -0.025722  -0.022738   0.584644   0.002111  -0.005181
     5  H   -0.025722   0.391270  -0.005181   0.002111   0.584646  -0.022739
     6  H   -0.025722   0.391269   0.002111  -0.005181  -0.022739   0.584648
 Mulliken charges:
               1
     1  C   -0.151230
     2  C   -0.151228
     3  H    0.075614
     4  H    0.075615
     5  H    0.075614
     6  H    0.075614
 Sum of Mulliken charges =   0.00000
 Mulliken charges with hydrogens summed into heavy atoms:
               1
     1  C    0.000000
     2  C    0.000000
 Electronic spatial extent (au):  <R**2>=             79.9862
 Charge=              0.0000 electrons
 Dipole moment (field-independent basis, Debye):
    X=              0.0000    Y=              0.0000    Z=              0.0000  Tot=              0.0000
 Quadrupole moment (field-independent basis, Debye-Ang):
   XX=            -11.7974   YY=            -11.5831   ZZ=            -13.4757
   XY=              0.0000   XZ=              0.0000   YZ=              0.0000
 Traceless Quadrupole moment (field-independent basis, Debye-Ang):
   XX=              0.4880   YY=              0.7023   ZZ=             -1.1903
   XY=              0.0000   XZ=              0.0000   YZ=              0.0000
 Octapole moment (field-independent basis, Debye-Ang**2):
  XXX=              0.0000  YYY=              0.0000  ZZZ=              0.0000  XYY=              0.0000
  XXY=              0.0000  XXZ=              0.0000  XZZ=              0.0000  YZZ=              0.0000
  YYZ=              0.0000  XYZ=              0.0000
 Hexadecapole moment (field-independent basis, Debye-Ang**3):
 XXXX=            -62.5284 YYYY=            -23.6841 ZZZZ=            -10.8837 XXXY=              0.0000
 XXXZ=              0.0000 YYYX=              0.0000 YYYZ=              0.0000 ZZZX=              0.0000
 ZZZY=              0.0000 XXYY=            -11.9369 XXZZ=            -12.7527 YYZZ=             -6.3239
 XXYZ=              0.0000 YYXZ=              0.0000 ZZXY=              0.0000
 N-N= 3.344535691183D+01 E-N=-2.463177248976D+02  KE= 7.655261504036D+01
 Calling FoFJK, ICntrl=      2127 FMM=F ISym2X=0 I1Cent= 0 IOpClX= 0 NMat=1 NMatS=1 NMatT=0.
 ***** Axes restored to original set *****
 -------------------------------------------------------------------
 Center     Atomic                   Forces (Hartrees/Bohr)
 Number     Number              X              Y              Z
 -------------------------------------------------------------------
      1        6           0.008849633    0.002445520   -0.003445665
      2        6          -0.008845337   -0.002446637    0.003446222
      3        1          -0.003266485   -0.002211450    0.002894109
      4        1          -0.004888504   -0.000042564    0.000281665
      5        1           0.004884815    0.000043586   -0.000281979
      6        1           0.003265878    0.002211547   -0.002894353
 -------------------------------------------------------------------
 Cartesian Forces:  Max     0.008849633 RMS     0.004000441

 GradGradGradGradGradGradGradGradGradGradGradGradGradGradGradGradGradGrad
 Berny optimization.
 FormGI is forming the generalized inverse of G from B-inverse, IUseBI=4.
 Internal  Forces:  Max     0.003964448 RMS     0.002708289
 Search for a local minimum.
 Step number   1 out of a maximum of   25
 All quantities printed in internal units (Hartrees-Bohrs-Radians)
 Mixed Optimization -- RFO/linear search
 Second derivative matrix not updated -- first step.
 The second derivative matrix:
                          R1        R2        R3        R4        R5
           R1           0.60818
           R2           0.00000   0.35131
           R3           0.00000   0.00000   0.35131
           R4           0.00000   0.00000   0.00000   0.35131
           R5           0.00000   0.00000   0.00000   0.00000   0.35131
           A1           0.00000   0.00000   0.00000   0.00000   0.00000
           A2           0.00000   0.00000   0.00000   0.00000   0.00000
           A3           0.00000   0.00000   0.00000   0.00000   0.00000
           A4           0.00000   0.00000   0.00000   0.00000   0.00000
           A5           0.00000   0.00000   0.00000   0.00000   0.00000
           A6           0.00000   0.00000   0.00000   0.00000   0.00000
           D1           0.00000   0.00000   0.00000   0.00000   0.00000
           D2           0.00000   0.00000   0.00000   0.00000   0.00000
           D3           0.00000   0.00000   0.00000   0.00000   0.00000
           D4           0.00000   0.00000   0.00000   0.00000   0.00000
                          A1        A2        A3        A4        A5
           A1           0.16000
           A2           0.00000   0.16000
           A3           0.00000   0.00000   0.16000
           A4           0.00000   0.00000   0.00000   0.16000
           A5           0.00000   0.00000   0.00000   0.00000   0.16000
           A6           0.00000   0.00000   0.00000   0.00000   0.00000
           D1           0.00000   0.00000   0.00000   0.00000   0.00000
           D2           0.00000   0.00000   0.00000   0.00000   0.00000
           D3           0.00000   0.00000   0.00000   0.00000   0.00000
           D4           0.00000   0.00000   0.00000   0.00000   0.00000
                          A6        D1        D2        D3        D4
           A6           0.16000
           D1           0.00000   0.03087
           D2           0.00000   0.00000   0.03087
           D3           0.00000   0.00000   0.00000   0.03087
           D4           0.00000   0.00000   0.00000   0.00000   0.03087
 ITU=  0
     Eigenvalues ---    0.03087   0.03087   0.03087   0.16000   0.16000
     Eigenvalues ---    0.16000   0.16000   0.35131   0.35131   0.35131
     Eigenvalues ---    0.35131   0.60818
 RFO step:  Lambda=-4.71782225D-04 EMin= 3.08716499D-02
 Linear search not attempted -- first point.
 Iteration  1 RMS(Cart)=  0.01400546 RMS(Int)=  0.00010070
 Iteration  2 RMS(Cart)=  0.00010812 RMS(Int)=  0.00000001
 Iteration  3 RMS(Cart)=  0.00000001 RMS(Int)=  0.00000000
 Variable       Old X    -DE/DX   Delta X   Delta X   Delta X     New X
                                 (Linear)    (Quad)   (Total)
    R1        2.50299  -0.00077   0.00000  -0.00126  -0.00126   2.50172
    R2        2.05463   0.00394   0.00000   0.01121   0.01121   2.06585
    R3        2.05462   0.00395   0.00000   0.01123   0.01123   2.06585
    R4        2.05463   0.00395   0.00000   0.01122   0.01122   2.06585
    R5        2.05463   0.00394   0.00000   0.01121   0.01121   2.06585
    A1        2.11435   0.00198   0.00000   0.01235   0.01235   2.12670
    A2        2.11435   0.00198   0.00000   0.01235   0.01235   2.12670
    A3        2.05449  -0.00396   0.00000  -0.02470  -0.02470   2.02979
    A4        2.11436   0.00198   0.00000   0.01234   0.01234   2.12670
    A5        2.11435   0.00198   0.00000   0.01236   0.01236   2.12670
    A6        2.05448  -0.00396   0.00000  -0.02470  -0.02470   2.02978
    D1        0.00000   0.00000   0.00000   0.00000   0.00000   0.00000
    D2        3.14159   0.00000   0.00000   0.00000   0.00000  -3.14159
    D3       -3.14159   0.00000   0.00000  -0.00001  -0.00001   3.14159
    D4        0.00000   0.00000   0.00000   0.00000   0.00000   0.00000
         Item               Value     Threshold  Converged?
 Maximum Force            0.003964     0.000450     NO 
 RMS     Force            0.002708     0.000300     NO 
 Maximum Displacement     0.025898     0.001800     NO 
 RMS     Displacement     0.014038     0.001200     NO 
 Predicted change in Energy=-2.364433D-04
 GradGradGradGradGradGradGradGradGradGradGradGradGradGradGradGradGradGrad

                          Input orientation:                          
 ---------------------------------------------------------------------
 Center     Atomic      Atomic             Coordinates (Angstroms)
 Number     Number       Type             X           Y           Z
 ---------------------------------------------------------------------
      1          6           0       -0.745556   -1.172469    1.557712
      2          6           0        0.448759   -0.841833    1.092004
      3          1           0       -0.866311   -1.851871    2.405600
      4          1           0       -1.665688   -0.781224    1.115705
      5          1           0        1.368892   -1.233073    1.534011
      6          1           0        0.569515   -0.162430    0.244117
 ---------------------------------------------------------------------
                    Distance matrix (angstroms):
                    1          2          3          4          5
     1  C    0.000000
     2  C    1.323855   0.000000
     3  H    1.093198   2.115447   0.000000
     4  H    1.093200   2.115448   1.857179   0.000000
     5  H    2.115449   1.093199   2.477642   3.096421   0.000000
     6  H    2.115448   1.093199   3.096419   2.477641   1.857177
                    6
     6  H    0.000000
 Stoichiometry    C2H4
 Framework group  C1[X(C2H4)]
 Deg. of freedom    12
 Full point group                 C1      NOp   1
 Largest Abelian subgroup         C1      NOp   1
 Largest concise Abelian subgroup C1      NOp   1
                         Standard orientation:                         
 ---------------------------------------------------------------------
 Center     Atomic      Atomic             Coordinates (Angstroms)
 Number     Number       Type             X           Y           Z
 ---------------------------------------------------------------------
      1          6           0        0.661927    0.000000    0.000000
      2          6           0       -0.661927    0.000000    0.000000
      3          1           0        1.238820   -0.928589   -0.000001
      4          1           0        1.238821    0.928590   -0.000001
      5          1           0       -1.238822   -0.928588   -0.000001
      6          1           0       -1.238820    0.928589   -0.000001
 ---------------------------------------------------------------------
 Rotational constants (GHZ):    145.3867480     30.2580703     25.0455578
 Standard basis: STO-3G (5D, 7F)
 There are    14 symmetry adapted cartesian basis functions of A   symmetry.
 There are    14 symmetry adapted basis functions of A   symmetry.
    14 basis functions,    42 primitive gaussians,    14 cartesian basis functions
     8 alpha electrons        8 beta electrons
       nuclear repulsion energy        33.3500073625 Hartrees.
 NAtoms=    6 NActive=    6 NUniq=    6 SFac= 1.00D+00 NAtFMM=   60 NAOKFM=F Big=F
 Integral buffers will be    131072 words long.
 Raffenetti 2 integral format.
 Two-electron integral symmetry is turned on.
 One-electron integrals computed using PRISM.
 NBasis=    14 RedAO= T EigKep=  1.87D-01  NBF=    14
 NBsUse=    14 1.00D-06 EigRej= -1.00D+00 NBFU=    14
 Initial guess from the checkpoint file:  "/scr/Gau-784.chk"
 B after Tr=     0.000000    0.000000    0.000000
         Rot=    1.000000    0.000000    0.000000    0.000000 Ang=   0.00 deg.
 ExpMin= 1.69D-01 ExpMax= 7.16D+01 ExpMxC= 7.16D+01 IAcc=1 IRadAn=         1 AccDes= 0.00D+00
 Harris functional with IExCor= 1009 and IRadAn=       1 diagonalized for initial guess.
 HarFok:  IExCor= 1009 AccDes= 0.00D+00 IRadAn=         1 IDoV= 1 UseB2=F ITyADJ=14
 ICtDFT=  3500011 ScaDFX=  1.000000  1.000000  1.000000  1.000000
 FoFCou: FMM=F IPFlag=           0 FMFlag=      100000 FMFlg1=           0
         NFxFlg=           0 DoJE=T BraDBF=F KetDBF=T FulRan=T
         wScrn=  0.000000 ICntrl=     500 IOpCl=  0 I1Cent=   200000004 NGrid=           0
         NMat0=    1 NMatS0=      1 NMatT0=    0 NMatD0=    1 NMtDS0=    0 NMtDT0=    0
 Petite list used in FoFCou.
 Keep R1 ints in memory in canonical form, NReq=885538.
 Requested convergence on RMS density matrix=1.00D-08 within 128 cycles.
 Requested convergence on MAX density matrix=1.00D-06.
 Requested convergence on             energy=1.00D-06.
 No special actions if energy rises.
 Integral accuracy reduced to 1.0D-05 until final iterations.
 Initial convergence to 1.0D-05 achieved.  Increase integral accuracy.
 SCF Done:  E(RM062X) =  -77.6087301155     A.U. after   10 cycles
            NFock= 10  Conv=0.11D-08     -V/T= 2.0141
 Calling FoFJK, ICntrl=      2127 FMM=F ISym2X=0 I1Cent= 0 IOpClX= 0 NMat=1 NMatS=1 NMatT=0.
 ***** Axes restored to original set *****
 -------------------------------------------------------------------
 Center     Atomic                   Forces (Hartrees/Bohr)
 Number     Number              X              Y              Z
 -------------------------------------------------------------------
      1        6           0.001525819    0.000423338   -0.000595817
      2        6          -0.001526148   -0.000422455    0.000595326
      3        1          -0.000515119    0.000531835   -0.000635306
      4        1           0.000320695   -0.000586635    0.000712027
      5        1          -0.000320139    0.000585941   -0.000711631
      6        1           0.000514891   -0.000532023    0.000635402
 -------------------------------------------------------------------
 Cartesian Forces:  Max     0.001526148 RMS     0.000727792

 GradGradGradGradGradGradGradGradGradGradGradGradGradGradGradGradGradGrad
 Berny optimization.
 Using GEDIIS/GDIIS optimizer.
 FormGI is forming the generalized inverse of G from B-inverse, IUseBI=4.
 Internal  Forces:  Max     0.001475770 RMS     0.000663508
 Search for a local minimum.
 Step number   2 out of a maximum of   25
 All quantities printed in internal units (Hartrees-Bohrs-Radians)
 Mixed Optimization -- En-DIIS/RFO-DIIS
 Update second derivatives using D2CorX and points    1    2
 DE= -2.50D-04 DEPred=-2.36D-04 R= 1.06D+00
 TightC=F SS=  1.41D+00  RLast= 4.83D-02 DXNew= 5.0454D-01 1.4498D-01
 Trust test= 1.06D+00 RLast= 4.83D-02 DXMaxT set to 3.00D-01
 The second derivative matrix:
                          R1        R2        R3        R4        R5
           R1           0.60805
           R2           0.01395   0.36846
           R3           0.01397   0.01719   0.36853
           R4           0.01396   0.01717   0.01720   0.36849
           R5           0.01395   0.01716   0.01719   0.01717   0.36847
           A1           0.00573   0.00013   0.00013   0.00013   0.00013
           A2           0.00573   0.00013   0.00013   0.00013   0.00013
           A3          -0.01146  -0.00025  -0.00026  -0.00026  -0.00026
           A4           0.00572   0.00013   0.00013   0.00013   0.00013
           A5           0.00573   0.00013   0.00013   0.00013   0.00013
           A6          -0.01145  -0.00026  -0.00026  -0.00026  -0.00026
           D1           0.00000   0.00000   0.00000   0.00000   0.00000
           D2           0.00000   0.00000   0.00000   0.00000   0.00000
           D3           0.00000   0.00000   0.00000   0.00000   0.00000
           D4           0.00000   0.00000   0.00000   0.00000   0.00000
                          A1        A2        A3        A4        A5
           A1           0.15724
           A2          -0.00276   0.15724
           A3           0.00551   0.00551   0.14897
           A4          -0.00275  -0.00275   0.00551   0.15725
           A5          -0.00276  -0.00276   0.00551  -0.00275   0.15724
           A6           0.00551   0.00551  -0.01102   0.00551   0.00551
           D1           0.00000   0.00000   0.00000   0.00000   0.00000
           D2           0.00000   0.00000   0.00000   0.00000   0.00000
           D3           0.00000   0.00000   0.00000   0.00000   0.00000
           D4           0.00000   0.00000   0.00000   0.00000   0.00000
                          A6        D1        D2        D3        D4
           A6           0.14898
           D1           0.00000   0.03087
           D2           0.00000   0.00000   0.03087
           D3           0.00000   0.00000   0.00000   0.03087
           D4           0.00000   0.00000   0.00000   0.00000   0.03087
 ITU=  1  0
 Use linear search instead of GDIIS.
     Eigenvalues ---    0.03087   0.03087   0.03087   0.12612   0.16000
     Eigenvalues ---    0.16000   0.16000   0.35131   0.35131   0.35131
     Eigenvalues ---    0.41598   0.61291
 RFO step:  Lambda=-2.43826308D-05 EMin= 3.08716499D-02
 Quartic linear search produced a step of  0.06605.
 Iteration  1 RMS(Cart)=  0.00334027 RMS(Int)=  0.00000668
 Iteration  2 RMS(Cart)=  0.00000690 RMS(Int)=  0.00000000
 Iteration  3 RMS(Cart)=  0.00000000 RMS(Int)=  0.00000000
 Variable       Old X    -DE/DX   Delta X   Delta X   Delta X     New X
                                 (Linear)    (Quad)   (Total)
    R1        2.50172  -0.00148  -0.00008  -0.00257  -0.00265   2.49907
    R2        2.06585  -0.00077   0.00074  -0.00249  -0.00175   2.06410
    R3        2.06585  -0.00077   0.00074  -0.00249  -0.00175   2.06410
    R4        2.06585  -0.00077   0.00074  -0.00249  -0.00175   2.06410
    R5        2.06585  -0.00077   0.00074  -0.00249  -0.00175   2.06410
    A1        2.12670   0.00042   0.00082   0.00259   0.00341   2.13011
    A2        2.12670   0.00042   0.00082   0.00259   0.00341   2.13011
    A3        2.02979  -0.00083  -0.00163  -0.00519  -0.00682   2.02297
    A4        2.12670   0.00042   0.00082   0.00259   0.00341   2.13011
    A5        2.12670   0.00042   0.00082   0.00259   0.00341   2.13011
    A6        2.02978  -0.00083  -0.00163  -0.00518  -0.00682   2.02297
    D1        0.00000   0.00000   0.00000   0.00000   0.00000   0.00000
    D2       -3.14159   0.00000   0.00000   0.00000   0.00000   3.14159
    D3        3.14159   0.00000   0.00000   0.00001   0.00001  -3.14159
    D4        0.00000   0.00000   0.00000   0.00000   0.00000   0.00000
         Item               Value     Threshold  Converged?
 Maximum Force            0.001476     0.000450     NO 
 RMS     Force            0.000664     0.000300     NO 
 Maximum Displacement     0.005599     0.001800     NO 
 RMS     Displacement     0.003341     0.001200     NO 
 Predicted change in Energy=-1.312250D-05
 GradGradGradGradGradGradGradGradGradGradGradGradGradGradGradGradGradGrad

                          Input orientation:                          
 ---------------------------------------------------------------------
 Center     Atomic      Atomic             Coordinates (Angstroms)
 Number     Number       Type             X           Y           Z
 ---------------------------------------------------------------------
      1          6           0       -0.744923   -1.172292    1.557466
      2          6           0        0.448126   -0.842007    1.092252
      3          1           0       -0.869274   -1.850774    2.404379
      4          1           0       -1.666278   -0.783306    1.118312
      5          1           0        1.369482   -1.230994    1.531404
      6          1           0        0.572478   -0.163526    0.245338
 ---------------------------------------------------------------------
                    Distance matrix (angstroms):
                    1          2          3          4          5
     1  C    0.000000
     2  C    1.322451   0.000000
     3  H    1.092274   2.115380   0.000000
     4  H    1.092274   2.115379   1.851667   0.000000
     5  H    2.115379   1.092274   2.481580   3.096273   0.000000
     6  H    2.115380   1.092274   3.096274   2.481580   1.851667
                    6
     6  H    0.000000
 Stoichiometry    C2H4
 Framework group  C1[X(C2H4)]
 Deg. of freedom    12
 Full point group                 C1      NOp   1
 Largest Abelian subgroup         C1      NOp   1
 Largest concise Abelian subgroup C1      NOp   1
                         Standard orientation:                         
 ---------------------------------------------------------------------
 Center     Atomic      Atomic             Coordinates (Angstroms)
 Number     Number       Type             X           Y           Z
 ---------------------------------------------------------------------
      1          6           0        0.661226    0.000000    0.000000
      2          6           0       -0.661226    0.000000    0.000000
      3          1           0        1.240790   -0.925833    0.000001
      4          1           0        1.240790    0.925834    0.000001
      5          1           0       -1.240790   -0.925834    0.000001
      6          1           0       -1.240790    0.925833    0.000001
 ---------------------------------------------------------------------
 Rotational constants (GHZ):    146.2535201     30.2627746     25.0743838
 Standard basis: STO-3G (5D, 7F)
 There are    14 symmetry adapted cartesian basis functions of A   symmetry.
 There are    14 symmetry adapted basis functions of A   symmetry.
    14 basis functions,    42 primitive gaussians,    14 cartesian basis functions
     8 alpha electrons        8 beta electrons
       nuclear repulsion energy        33.3763440713 Hartrees.
 NAtoms=    6 NActive=    6 NUniq=    6 SFac= 1.00D+00 NAtFMM=   60 NAOKFM=F Big=F
 Integral buffers will be    131072 words long.
 Raffenetti 2 integral format.
 Two-electron integral symmetry is turned on.
 One-electron integrals computed using PRISM.
 NBasis=    14 RedAO= T EigKep=  1.87D-01  NBF=    14
 NBsUse=    14 1.00D-06 EigRej= -1.00D+00 NBFU=    14
 Initial guess from the checkpoint file:  "/scr/Gau-784.chk"
 B after Tr=     0.000000    0.000000    0.000000
         Rot=    1.000000    0.000000    0.000000    0.000000 Ang=   0.00 deg.
 Keep R1 ints in memory in canonical form, NReq=885538.
 Requested convergence on RMS density matrix=1.00D-08 within 128 cycles.
 Requested convergence on MAX density matrix=1.00D-06.
 Requested convergence on             energy=1.00D-06.
 No special actions if energy rises.
 SCF Done:  E(RM062X) =  -77.6087423417     A.U. after    6 cycles
            NFock=  6  Conv=0.79D-08     -V/T= 2.0140
 Calling FoFJK, ICntrl=      2127 FMM=F ISym2X=0 I1Cent= 0 IOpClX= 0 NMat=1 NMatS=1 NMatT=0.
 ***** Axes restored to original set *****
 -------------------------------------------------------------------
 Center     Atomic                   Forces (Hartrees/Bohr)
 Number     Number              X              Y              Z
 -------------------------------------------------------------------
      1        6          -0.000148777   -0.000041285    0.000057878
      2        6           0.000148818    0.000040985   -0.000058013
      3        1           0.000027666   -0.000040696    0.000049272
      4        1          -0.000032373    0.000039561   -0.000047390
      5        1           0.000032317   -0.000039397    0.000047467
      6        1          -0.000027651    0.000040832   -0.000049214
 -------------------------------------------------------------------
 Cartesian Forces:  Max     0.000148818 RMS     0.000064028

 GradGradGradGradGradGradGradGradGradGradGradGradGradGradGradGradGradGrad
 Berny optimization.
 Using GEDIIS/GDIIS optimizer.
 FormGI is forming the generalized inverse of G from B-inverse, IUseBI=4.
 Internal  Forces:  Max     0.000170082 RMS     0.000057947
 Search for a local minimum.
 Step number   3 out of a maximum of   25
 All quantities printed in internal units (Hartrees-Bohrs-Radians)
 Mixed Optimization -- En-DIIS/RFO-DIIS
 Swapping is turned off.
 Update second derivatives using D2CorX and points    1    2    3
 DE= -1.22D-05 DEPred=-1.31D-05 R= 9.32D-01
 TightC=F SS=  1.41D+00  RLast= 1.26D-02 DXNew= 5.0454D-01 3.7789D-02
 Trust test= 9.32D-01 RLast= 1.26D-02 DXMaxT set to 3.00D-01
 The second derivative matrix:
                          R1        R2        R3        R4        R5
           R1           0.62092
           R2           0.01851   0.37001
           R3           0.01854   0.01874   0.37008
           R4           0.01852   0.01872   0.01875   0.37004
           R5           0.01852   0.01871   0.01874   0.01872   0.37002
           A1           0.00318  -0.00081  -0.00081  -0.00081  -0.00081
           A2           0.00319  -0.00081  -0.00081  -0.00081  -0.00081
           A3          -0.00637   0.00162   0.00162   0.00162   0.00162
           A4           0.00318  -0.00081  -0.00081  -0.00081  -0.00081
           A5           0.00318  -0.00081  -0.00081  -0.00081  -0.00081
           A6          -0.00637   0.00162   0.00162   0.00162   0.00162
           D1           0.00000   0.00000   0.00000   0.00000   0.00000
           D2           0.00001   0.00000   0.00000   0.00000   0.00000
           D3          -0.00001  -0.00001  -0.00001  -0.00001  -0.00001
           D4           0.00000   0.00000   0.00000   0.00000   0.00000
                          A1        A2        A3        A4        A5
           A1           0.15748
           A2          -0.00252   0.15748
           A3           0.00504   0.00504   0.14992
           A4          -0.00252  -0.00252   0.00504   0.15748
           A5          -0.00252  -0.00252   0.00504  -0.00252   0.15748
           A6           0.00504   0.00504  -0.01008   0.00504   0.00504
           D1           0.00000   0.00000   0.00000   0.00000   0.00000
           D2           0.00000   0.00000   0.00000   0.00000   0.00000
           D3           0.00000   0.00000   0.00000   0.00000   0.00000
           D4           0.00000   0.00000   0.00000   0.00000   0.00000
                          A6        D1        D2        D3        D4
           A6           0.14993
           D1           0.00000   0.03087
           D2           0.00000   0.00000   0.03087
           D3           0.00000   0.00000   0.00000   0.03087
           D4           0.00000   0.00000   0.00000   0.00000   0.03087
 ITU=  1  1  0
     Eigenvalues ---    0.03087   0.03087   0.03087   0.12939   0.16000
     Eigenvalues ---    0.16000   0.16000   0.35131   0.35131   0.35131
     Eigenvalues ---    0.41961   0.62793
 En-DIIS/RFO-DIIS IScMMF=        0 using points:     3    2
 RFO step:  Lambda=-7.66278246D-08.
 DidBck=F Rises=F RFO-DIIS coefs:    0.93420    0.06580
 Iteration  1 RMS(Cart)=  0.00018075 RMS(Int)=  0.00000002
 Iteration  2 RMS(Cart)=  0.00000002 RMS(Int)=  0.00000000
 Variable       Old X    -DE/DX   Delta X   Delta X   Delta X     New X
                                 (Linear)    (Quad)   (Total)
    R1        2.49907   0.00017   0.00017   0.00010   0.00027   2.49934
    R2        2.06410   0.00006   0.00011   0.00001   0.00013   2.06422
    R3        2.06410   0.00006   0.00012   0.00001   0.00013   2.06422
    R4        2.06410   0.00006   0.00012   0.00001   0.00013   2.06422
    R5        2.06410   0.00006   0.00011   0.00001   0.00013   2.06422
    A1        2.13011  -0.00002  -0.00022   0.00004  -0.00019   2.12992
    A2        2.13011  -0.00002  -0.00022   0.00004  -0.00019   2.12992
    A3        2.02297   0.00005   0.00045  -0.00007   0.00038   2.02334
    A4        2.13011  -0.00002  -0.00022   0.00004  -0.00019   2.12992
    A5        2.13011  -0.00002  -0.00022   0.00004  -0.00019   2.12992
    A6        2.02297   0.00005   0.00045  -0.00007   0.00038   2.02334
    D1        0.00000   0.00000   0.00000   0.00000   0.00000   0.00000
    D2        3.14159   0.00000   0.00000   0.00000   0.00000  -3.14159
    D3       -3.14159   0.00000   0.00000   0.00000   0.00000   3.14159
    D4        0.00000   0.00000   0.00000   0.00000   0.00000   0.00000
         Item               Value     Threshold  Converged?
 Maximum Force            0.000170     0.000450     YES
 RMS     Force            0.000058     0.000300     YES
 Maximum Displacement     0.000262     0.001800     YES
 RMS     Displacement     0.000181     0.001200     YES
 Predicted change in Energy=-6.508965D-08
 Optimization completed.
    -- Stationary point found.
                           ----------------------------
                           !   Optimized Parameters   !
                           ! (Angstroms and Degrees)  !
 --------------------------                            --------------------------
 ! Name  Definition              Value          Derivative Info.                !
 --------------------------------------------------------------------------------
 ! R1    R(1,2)                  1.3225         -DE/DX =    0.0002              !
 ! R2    R(1,3)                  1.0923         -DE/DX =    0.0001              !
 ! R3    R(1,4)                  1.0923         -DE/DX =    0.0001              !
 ! R4    R(2,5)                  1.0923         -DE/DX =    0.0001              !
 ! R5    R(2,6)                  1.0923         -DE/DX =    0.0001              !
 ! A1    A(2,1,3)              122.0463         -DE/DX =    0.0                 !
 ! A2    A(2,1,4)              122.0462         -DE/DX =    0.0                 !
 ! A3    A(3,1,4)              115.9075         -DE/DX =    0.0                 !
 ! A4    A(1,2,5)              122.0462         -DE/DX =    0.0                 !
 ! A5    A(1,2,6)              122.0463         -DE/DX =    0.0                 !
 ! A6    A(5,2,6)              115.9075         -DE/DX =    0.0                 !
 ! D1    D(3,1,2,5)              0.0            -DE/DX =    0.0                 !
 ! D2    D(3,1,2,6)           -180.0001         -DE/DX =    0.0                 !
 ! D3    D(4,1,2,5)            180.0001         -DE/DX =    0.0                 !
 ! D4    D(4,1,2,6)              0.0            -DE/DX =    0.0                 !
 --------------------------------------------------------------------------------
 GradGradGradGradGradGradGradGradGradGradGradGradGradGradGradGradGradGrad

                          Input orientation:                          
 ---------------------------------------------------------------------
 Center     Atomic      Atomic             Coordinates (Angstroms)
 Number     Number       Type             X           Y           Z
 ---------------------------------------------------------------------
      1          6           0       -0.744923   -1.172292    1.557466
      2          6           0        0.448126   -0.842007    1.092252
      3          1           0       -0.869274   -1.850774    2.404379
      4          1           0       -1.666278   -0.783306    1.118312
      5          1           0        1.369482   -1.230994    1.531404
      6          1           0        0.572478   -0.163526    0.245338
 ---------------------------------------------------------------------
                    Distance matrix (angstroms):
                    1          2          3          4          5
     1  C    0.000000
     2  C    1.322451   0.000000
     3  H    1.092274   2.115380   0.000000
     4  H    1.092274   2.115379   1.851667   0.000000
     5  H    2.115379   1.092274   2.481580   3.096273   0.000000
     6  H    2.115380   1.092274   3.096274   2.481580   1.851667
                    6
     6  H    0.000000
 Stoichiometry    C2H4
 Framework group  C1[X(C2H4)]
 Deg. of freedom    12
 Full point group                 C1      NOp   1
 Largest Abelian subgroup         C1      NOp   1
 Largest concise Abelian subgroup C1      NOp   1
                         Standard orientation:                         
 ---------------------------------------------------------------------
 Center     Atomic      Atomic             Coordinates (Angstroms)
 Number     Number       Type             X           Y           Z
 ---------------------------------------------------------------------
      1          6           0        0.661226    0.000000    0.000000
      2          6           0       -0.661226    0.000000    0.000000
      3          1           0        1.240790   -0.925833    0.000001
      4          1           0        1.240790    0.925834    0.000001
      5          1           0       -1.240790   -0.925834    0.000001
      6          1           0       -1.240790    0.925833    0.000001
 ---------------------------------------------------------------------
 Rotational constants (GHZ):    146.2535201     30.2627746     25.0743838

 **********************************************************************

            Population analysis using the SCF density.

 **********************************************************************

 Orbital symmetries:
       Occupied  (A) (A) (A) (A) (A) (A) (A) (A)
       Virtual   (A) (A) (A) (A) (A) (A)
 The electronic state is 1-A.
 Alpha  occ. eigenvalues --  -10.36146 -10.36131  -0.80879  -0.61696  -0.50124
 Alpha  occ. eigenvalues --   -0.43912  -0.37516  -0.27428
 Alpha virt. eigenvalues --    0.17974   0.44993   0.51663   0.51749   0.72611
 Alpha virt. eigenvalues --    0.76450
          Condensed to atoms (all electrons):
               1          2          3          4          5          6
     1  C    4.814635   0.605425   0.389748   0.389748  -0.024987  -0.024987
     2  C    0.605425   4.814635  -0.024987  -0.024987   0.389748   0.389748
     3  H    0.389748  -0.024987   0.586903  -0.023570  -0.004935   0.002050
     4  H    0.389748  -0.024987  -0.023570   0.586903   0.002050  -0.004935
     5  H   -0.024987   0.389748  -0.004935   0.002050   0.586903  -0.023570
     6  H   -0.024987   0.389748   0.002050  -0.004935  -0.023570   0.586903
 Mulliken charges:
               1
     1  C   -0.149581
     2  C   -0.149581
     3  H    0.074791
     4  H    0.074791
     5  H    0.074791
     6  H    0.074791
 Sum of Mulliken charges =   0.00000
 Mulliken charges with hydrogens summed into heavy atoms:
               1
     1  C    0.000000
     2  C    0.000000
 Electronic spatial extent (au):  <R**2>=             80.3446
 Charge=              0.0000 electrons
 Dipole moment (field-independent basis, Debye):
    X=              0.0000    Y=              0.0000    Z=              0.0000  Tot=              0.0000
 Quadrupole moment (field-independent basis, Debye-Ang):
   XX=            -11.6977   YY=            -11.6394   ZZ=            -13.4806
   XY=              0.0000   XZ=              0.0000   YZ=              0.0000
 Traceless Quadrupole moment (field-independent basis, Debye-Ang):
   XX=              0.5749   YY=              0.6332   ZZ=             -1.2080
   XY=              0.0000   XZ=              0.0000   YZ=              0.0000
 Octapole moment (field-independent basis, Debye-Ang**2):
  XXX=              0.0000  YYY=              0.0000  ZZZ=              0.0000  XYY=              0.0000
  XXY=              0.0000  XXZ=              0.0000  XZZ=              0.0000  YZZ=              0.0000
  YYZ=              0.0000  XYZ=              0.0000
 Hexadecapole moment (field-independent basis, Debye-Ang**3):
 XXXX=            -62.7437 YYYY=            -23.6785 ZZZZ=            -10.8897 XXXY=              0.0000
 XXXZ=              0.0000 YYYX=              0.0000 YYYZ=              0.0000 ZZZX=              0.0000
 ZZZY=              0.0000 XXYY=            -11.9528 XXZZ=            -12.8609 YYZZ=             -6.3072
 XXYZ=              0.0000 YYXZ=              0.0000 ZZXY=              0.0000
 N-N= 3.337634407135D+01 E-N=-2.461737824350D+02  KE= 7.653758805968D+01
 1\1\GINC-N0299\FOpt\RM062X\STO-3G\C2H4\TAIYUPAN\24-Feb-2017\0\\#n M062
 X/STO-3G Opt\\Title\\0,1\C,-0.7449225787,-1.1722919972,1.557465873\C,0
 .4481259488,-0.8420068155,1.0922517095\H,-0.869274414,-1.8507742347,2.
 4043785202\H,-1.6662782225,-0.7833063561,1.1183118665\H,1.3694815926,-
 1.2309943657,1.5314042476\H,0.5724776737,-0.1635262308,0.2453377832\\V
 ersion=ES64L-G09RevE.01\State=1-A\HF=-77.6087423\RMSD=7.942e-09\RMSF=6
 .403e-05\Dipole=0.,-0.0000006,-0.0000005\Quadrupole=0.4342909,-0.36052
 36,-0.0737674,-0.0410027,-0.0114504,-0.6645542\PG=C01 [X(C2H4)]\\@


 AS FAR AS THE LAWS OF MATHEMATICS REFER TO REALITY,
 THEY ARE NOT CERTAIN; AND AS FAR AS THEY ARE CERTAIN,
 THEY DO NOT REFER TO REALITY.

                                         -- ALBERT EINSTEIN
 Job cpu time:       0 days  0 hours  0 minutes 30.7 seconds.
 File lengths (MBytes):  RWF=      5 Int=      0 D2E=      0 Chk=      1 Scr=      1
 Normal termination of Gaussian 09 at Fri Feb 24 00:14:55 2017.
