 Entering Gaussian System, Link 0=g09
 Input=CH2_MP2_S.com
 Output=CH2_MP2_S.log
 Initial command:
 /sw/contrib/gaussian/g09/E01/g09/l1.exe "/scr/Gau-17292.inp" -scrdir="/scr/"
 Entering Link 1 = /sw/contrib/gaussian/g09/E01/g09/l1.exe PID=     17293.
  
 Copyright (c) 1988,1990,1992,1993,1995,1998,2003,2009,2015,
            Gaussian, Inc.  All Rights Reserved.
  
 This is part of the Gaussian(R) 09 program.  It is based on
 the Gaussian(R) 03 system (copyright 2003, Gaussian, Inc.),
 the Gaussian(R) 98 system (copyright 1998, Gaussian, Inc.),
 the Gaussian(R) 94 system (copyright 1995, Gaussian, Inc.),
 the Gaussian 92(TM) system (copyright 1992, Gaussian, Inc.),
 the Gaussian 90(TM) system (copyright 1990, Gaussian, Inc.),
 the Gaussian 88(TM) system (copyright 1988, Gaussian, Inc.),
 the Gaussian 86(TM) system (copyright 1986, Carnegie Mellon
 University), and the Gaussian 82(TM) system (copyright 1983,
 Carnegie Mellon University). Gaussian is a federally registered
 trademark of Gaussian, Inc.
  
 This software contains proprietary and confidential information,
 including trade secrets, belonging to Gaussian, Inc.
  
 This software is provided under written license and may be
 used, copied, transmitted, or stored only in accord with that
 written license.
  
 The following legend is applicable only to US Government
 contracts under FAR:
  
                    RESTRICTED RIGHTS LEGEND
  
 Use, reproduction and disclosure by the US Government is
 subject to restrictions as set forth in subparagraphs (a)
 and (c) of the Commercial Computer Software - Restricted
 Rights clause in FAR 52.227-19.
  
 Gaussian, Inc.
 340 Quinnipiac St., Bldg. 40, Wallingford CT 06492
  
  
 ---------------------------------------------------------------
 Warning -- This program may not be used in any manner that
 competes with the business of Gaussian, Inc. or will provide
 assistance to any competitor of Gaussian, Inc.  The licensee
 of this program is prohibited from giving any competitor of
 Gaussian, Inc. access to this program.  By using this program,
 the user acknowledges that Gaussian, Inc. is engaged in the
 business of creating and licensing software in the field of
 computational chemistry and represents and warrants to the
 licensee that it is not a competitor of Gaussian, Inc. and that
 it will not use this program in any manner prohibited above.
 ---------------------------------------------------------------
  

 Cite this work as:
 Gaussian 09, Revision E.01,
 M. J. Frisch, G. W. Trucks, H. B. Schlegel, G. E. Scuseria, 
 M. A. Robb, J. R. Cheeseman, G. Scalmani, V. Barone, B. Mennucci, 
 G. A. Petersson, H. Nakatsuji, M. Caricato, X. Li, H. P. Hratchian, 
 A. F. Izmaylov, J. Bloino, G. Zheng, J. L. Sonnenberg, M. Hada, 
 M. Ehara, K. Toyota, R. Fukuda, J. Hasegawa, M. Ishida, T. Nakajima, 
 Y. Honda, O. Kitao, H. Nakai, T. Vreven, J. A. Montgomery, Jr., 
 J. E. Peralta, F. Ogliaro, M. Bearpark, J. J. Heyd, E. Brothers, 
 K. N. Kudin, V. N. Staroverov, T. Keith, R. Kobayashi, J. Normand, 
 K. Raghavachari, A. Rendell, J. C. Burant, S. S. Iyengar, J. Tomasi, 
 M. Cossi, N. Rega, J. M. Millam, M. Klene, J. E. Knox, J. B. Cross, 
 V. Bakken, C. Adamo, J. Jaramillo, R. Gomperts, R. E. Stratmann, 
 O. Yazyev, A. J. Austin, R. Cammi, C. Pomelli, J. W. Ochterski, 
 R. L. Martin, K. Morokuma, V. G. Zakrzewski, G. A. Voth, 
 P. Salvador, J. J. Dannenberg, S. Dapprich, A. D. Daniels, 
 O. Farkas, J. B. Foresman, J. V. Ortiz, J. Cioslowski, 
 and D. J. Fox, Gaussian, Inc., Wallingford CT, 2013.
 
 ******************************************
 Gaussian 09:  ES64L-G09RevE.01 30-Nov-2015
                24-Feb-2017 
 ******************************************
 %NProcShared=8
 Will use up to    8 processors via shared memory.
 -----------------
 #n MP2/STO-3G Opt
 -----------------
 1/18=20,19=15,38=1/1,3;
 2/9=110,12=2,17=6,18=5,40=1/2;
 3/6=3,11=9,16=1,25=1,30=1,71=1/1,2,3;
 4//1;
 5/5=2,38=5/2;
 8/6=4,10=1/1;
 9/15=2,16=-3/6;
 10/5=1/2;
 6/7=2,8=2,9=2,10=2/1;
 7/12=2/1,2,3,16;
 1/18=20,19=15/3(2);
 2/9=110/2;
 99//99;
 2/9=110/2;
 3/6=3,11=9,16=1,25=1,30=1,71=1/1,2,3;
 4/5=5,16=3,69=1/1;
 5/5=2,38=5/2;
 8/6=4,10=1/1;
 9/15=2,16=-3/6;
 10/5=1/2;
 7/12=2/1,2,3,16;
 1/18=20,19=15/3(-8);
 2/9=110/2;
 6/7=2,8=2,9=2,10=2/1;
 99//99;
 -----
 Title
 -----
 Symbolic Z-matrix:
 Charge =  0 Multiplicity = 1
 C                    -0.74586  -1.17255   1.55783 
 C                     0.44906  -0.84175   1.09189 
 H                    -0.85261  -1.84945   2.40196 
 H                    -1.65368  -0.77653   1.10932 
 H                     1.35689  -1.23777   1.54039 
 H                     0.55581  -0.16485   0.24776 
 

 GradGradGradGradGradGradGradGradGradGradGradGradGradGradGradGradGradGrad
 Berny optimization.
 Initialization pass.
                           ----------------------------
                           !    Initial Parameters    !
                           ! (Angstroms and Degrees)  !
 --------------------------                            --------------------------
 ! Name  Definition              Value          Derivative Info.                !
 --------------------------------------------------------------------------------
 ! R1    R(1,2)                  1.3245         estimate D2E/DX2                !
 ! R2    R(1,3)                  1.0873         estimate D2E/DX2                !
 ! R3    R(1,4)                  1.0873         estimate D2E/DX2                !
 ! R4    R(2,5)                  1.0873         estimate D2E/DX2                !
 ! R5    R(2,6)                  1.0873         estimate D2E/DX2                !
 ! A1    A(2,1,3)              121.1431         estimate D2E/DX2                !
 ! A2    A(2,1,4)              121.1433         estimate D2E/DX2                !
 ! A3    A(3,1,4)              117.7137         estimate D2E/DX2                !
 ! A4    A(1,2,5)              121.1439         estimate D2E/DX2                !
 ! A5    A(1,2,6)              121.1431         estimate D2E/DX2                !
 ! A6    A(5,2,6)              117.713          estimate D2E/DX2                !
 ! D1    D(3,1,2,5)              0.0002         estimate D2E/DX2                !
 ! D2    D(3,1,2,6)            180.0            estimate D2E/DX2                !
 ! D3    D(4,1,2,5)           -179.9996         estimate D2E/DX2                !
 ! D4    D(4,1,2,6)              0.0002         estimate D2E/DX2                !
 --------------------------------------------------------------------------------
 Trust Radius=3.00D-01 FncErr=1.00D-07 GrdErr=1.00D-07
 Number of steps in this run=     25 maximum allowed number of steps=    100.
 GradGradGradGradGradGradGradGradGradGradGradGradGradGradGradGradGradGrad

                          Input orientation:                          
 ---------------------------------------------------------------------
 Center     Atomic      Atomic             Coordinates (Angstroms)
 Number     Number       Type             X           Y           Z
 ---------------------------------------------------------------------
      1          6           0       -0.745860   -1.172550    1.557830
      2          6           0        0.449060   -0.841750    1.091890
      3          1           0       -0.852610   -1.849450    2.401960
      4          1           0       -1.653680   -0.776530    1.109320
      5          1           0        1.356890   -1.237770    1.540390
      6          1           0        0.555810   -0.164850    0.247760
 ---------------------------------------------------------------------
                    Distance matrix (angstroms):
                    1          2          3          4          5
     1  C    0.000000
     2  C    1.324524   0.000000
     3  H    1.087265   2.103827   0.000000
     4  H    1.087258   2.103823   1.861126   0.000000
     5  H    2.103833   1.087262   2.449152   3.076052   0.000000
     6  H    2.103827   1.087265   3.076053   2.449139   1.861123
                    6
     6  H    0.000000
 Stoichiometry    C2H4
 Framework group  C1[X(C2H4)]
 Deg. of freedom    12
 Full point group                 C1      NOp   1
 Largest Abelian subgroup         C1      NOp   1
 Largest concise Abelian subgroup C1      NOp   1
                         Standard orientation:                         
 ---------------------------------------------------------------------
 Center     Atomic      Atomic             Coordinates (Angstroms)
 Number     Number       Type             X           Y           Z
 ---------------------------------------------------------------------
      1          6           0        0.662263    0.000001    0.000000
      2          6           0       -0.662261   -0.000001    0.000000
      3          1           0        1.224572   -0.930565    0.000000
      4          1           0        1.224569    0.930560    0.000003
      5          1           0       -1.224580   -0.930558    0.000003
      6          1           0       -1.224570    0.930565    0.000000
 ---------------------------------------------------------------------
 Rotational constants (GHZ):    144.7709037     30.4970117     25.1904631
 Standard basis: STO-3G (5D, 7F)
 There are    14 symmetry adapted cartesian basis functions of A   symmetry.
 There are    14 symmetry adapted basis functions of A   symmetry.
    14 basis functions,    42 primitive gaussians,    14 cartesian basis functions
     8 alpha electrons        8 beta electrons
       nuclear repulsion energy        33.4453569118 Hartrees.
 NAtoms=    6 NActive=    6 NUniq=    6 SFac= 1.00D+00 NAtFMM=   60 NAOKFM=F Big=F
 Integral buffers will be    131072 words long.
 Raffenetti 1 integral format.
 Two-electron integral symmetry is turned on.
 One-electron integrals computed using PRISM.
 NBasis=    14 RedAO= T EigKep=  1.86D-01  NBF=    14
 NBsUse=    14 1.00D-06 EigRej= -1.00D+00 NBFU=    14
 ExpMin= 1.69D-01 ExpMax= 7.16D+01 ExpMxC= 7.16D+01 IAcc=1 IRadAn=         1 AccDes= 0.00D+00
 Harris functional with IExCor=  205 and IRadAn=       1 diagonalized for initial guess.
 HarFok:  IExCor=  205 AccDes= 0.00D+00 IRadAn=         1 IDoV= 1 UseB2=F ITyADJ=14
 ICtDFT=  3500011 ScaDFX=  1.000000  1.000000  1.000000  1.000000
 FoFCou: FMM=F IPFlag=           0 FMFlag=      100000 FMFlg1=           0
         NFxFlg=           0 DoJE=T BraDBF=F KetDBF=T FulRan=T
         wScrn=  0.000000 ICntrl=     500 IOpCl=  0 I1Cent=   200000004 NGrid=           0
         NMat0=    1 NMatS0=      1 NMatT0=    0 NMatD0=    1 NMtDS0=    0 NMtDT0=    0
 Petite list used in FoFCou.
 Keep R1 ints in memory in canonical form, NReq=831627.
 Requested convergence on RMS density matrix=1.00D-08 within 128 cycles.
 Requested convergence on MAX density matrix=1.00D-06.
 Requested convergence on             energy=1.00D-06.
 No special actions if energy rises.
 SCF Done:  E(RHF) =  -77.0730967777     A.U. after    7 cycles
            NFock=  7  Conv=0.58D-08     -V/T= 2.0064
 ExpMin= 1.69D-01 ExpMax= 7.16D+01 ExpMxC= 7.16D+01 IAcc=3 IRadAn=         5 AccDes= 0.00D+00
 HarFok:  IExCor=  205 AccDes= 0.00D+00 IRadAn=         5 IDoV=-2 UseB2=F ITyADJ=14
 ICtDFT= 12500011 ScaDFX=  1.000000  1.000000  1.000000  1.000000
 Range of M.O.s used for correlation:     3    14
 NBasis=    14 NAE=     8 NBE=     8 NFC=     2 NFV=     0
 NROrb=     12 NOA=     6 NOB=     6 NVA=     6 NVB=     6
 Fully direct method using O(ONN) memory.
 JobTyp=1 Pass  1:  I=   3 to   8 NPSUse=  3 ParTrn=F ParDer=T DoDerP=T.
 Spin components of T(2) and E(2):
     alpha-alpha T2 =       0.3280900838D-02 E2=     -0.7809404670D-02
     alpha-beta  T2 =       0.4969803247D-01 E2=     -0.1056474488D+00
     beta-beta   T2 =       0.3280900838D-02 E2=     -0.7809404670D-02
 ANorm=    0.1027745024D+01
 E2 =    -0.1212662582D+00 EUMP2 =    -0.77194363035900D+02
          IDoAtm=111111
          Differentiating once with respect to electric field.
                with respect to dipole field.
          Differentiating once with respect to nuclear coordinates.
 Keep R1 ints in memory in canonical form, NReq=814237.
          There are     1 degrees of freedom in the 1st order CPHF.  IDoFFX=0 NUNeed=     1.
 LinEq1:  Iter=  0 NonCon=     1 RMS=3.12D-03 Max=1.42D-02 NDo=     1
 AX will form     1 AO Fock derivatives at one time.
 LinEq1:  Iter=  1 NonCon=     1 RMS=7.39D-05 Max=3.21D-04 NDo=     1
 LinEq1:  Iter=  2 NonCon=     1 RMS=6.61D-06 Max=2.19D-05 NDo=     1
 LinEq1:  Iter=  3 NonCon=     1 RMS=4.21D-07 Max=1.54D-06 NDo=     1
 LinEq1:  Iter=  4 NonCon=     1 RMS=4.00D-08 Max=1.57D-07 NDo=     1
 LinEq1:  Iter=  5 NonCon=     1 RMS=3.93D-09 Max=1.39D-08 NDo=     1
 LinEq1:  Iter=  6 NonCon=     1 RMS=1.37D-09 Max=6.31D-09 NDo=     1
 LinEq1:  Iter=  7 NonCon=     0 RMS=6.21D-11 Max=2.46D-10 NDo=     1
 Linear equations converged to 1.000D-10 1.000D-09 after     7 iterations.
 End of Minotr F.D. properties file   721 does not exist.
 End of Minotr F.D. properties file   722 does not exist.
 End of Minotr F.D. properties file   788 does not exist.

 **********************************************************************

            Population analysis using the SCF density.

 **********************************************************************

 Orbital symmetries:
       Occupied  (A) (A) (A) (A) (A) (A) (A) (A)
       Virtual   (A) (A) (A) (A) (A) (A)
 The electronic state is 1-A.
 Alpha  occ. eigenvalues --  -11.02003 -11.01914  -0.98076  -0.74168  -0.60391
 Alpha  occ. eigenvalues --   -0.53023  -0.46058  -0.32804
 Alpha virt. eigenvalues --    0.32272   0.62691   0.68432   0.69189   0.94285
 Alpha virt. eigenvalues --    0.99844
          Condensed to atoms (all electrons):
               1          2          3          4          5          6
     1  C    4.788590   0.604138   0.392018   0.392019  -0.025985  -0.025986
     2  C    0.604138   4.788590  -0.025986  -0.025986   0.392018   0.392018
     3  H    0.392018  -0.025986   0.597662  -0.023215  -0.004893   0.002018
     4  H    0.392019  -0.025986  -0.023215   0.597660   0.002018  -0.004894
     5  H   -0.025985   0.392018  -0.004893   0.002018   0.597661  -0.023216
     6  H   -0.025986   0.392018   0.002018  -0.004894  -0.023216   0.597664
 Mulliken charges:
               1
     1  C   -0.124794
     2  C   -0.124792
     3  H    0.062396
     4  H    0.062397
     5  H    0.062396
     6  H    0.062396
 Sum of Mulliken charges =   0.00000
 Mulliken charges with hydrogens summed into heavy atoms:
               1
     1  C    0.000000
     2  C    0.000000
 Electronic spatial extent (au):  <R**2>=             80.2891
 Charge=              0.0000 electrons
 Dipole moment (field-independent basis, Debye):
    X=              0.0000    Y=              0.0000    Z=              0.0000  Tot=              0.0000
 Quadrupole moment (field-independent basis, Debye-Ang):
   XX=            -12.0157   YY=            -11.7697   ZZ=            -13.4781
   XY=              0.0000   XZ=              0.0000   YZ=              0.0000
 Traceless Quadrupole moment (field-independent basis, Debye-Ang):
   XX=              0.4054   YY=              0.6515   ZZ=             -1.0569
   XY=              0.0000   XZ=              0.0000   YZ=              0.0000
 Octapole moment (field-independent basis, Debye-Ang**2):
  XXX=              0.0000  YYY=              0.0000  ZZZ=              0.0000  XYY=              0.0000
  XXY=              0.0000  XXZ=              0.0000  XZZ=              0.0000  YZZ=              0.0000
  YYZ=              0.0000  XYZ=              0.0000
 Hexadecapole moment (field-independent basis, Debye-Ang**3):
 XXXX=            -63.2252 YYYY=            -24.0897 ZZZZ=            -10.8919 XXXY=              0.0000
 XXXZ=              0.0000 YYYX=              0.0000 YYYZ=              0.0000 ZZZX=              0.0000
 ZZZY=              0.0000 XXYY=            -12.3341 XXZZ=            -12.7933 YYZZ=             -6.3601
 XXYZ=              0.0000 YYXZ=              0.0000 ZZXY=              0.0000
 N-N= 3.344535691183D+01 E-N=-2.462481524719D+02  KE= 7.658000053576D+01
 Calling FoFJK, ICntrl=  10002127 FMM=F ISym2X=0 I1Cent= 0 IOpClX= 0 NMat=1 NMatS=1 NMatT=0.
 ***** Axes restored to original set *****
 -------------------------------------------------------------------
 Center     Atomic                   Forces (Hartrees/Bohr)
 Number     Number              X              Y              Z
 -------------------------------------------------------------------
      1        6          -0.014593415   -0.004044532    0.005695744
      2        6           0.014597831    0.004043385   -0.005695105
      3        1          -0.003538404   -0.005478995    0.006957519
      4        1          -0.009110874    0.001980862   -0.002029388
      5        1           0.009107097   -0.001979812    0.002029021
      6        1           0.003537764    0.005479093   -0.006957791
 -------------------------------------------------------------------
 Cartesian Forces:  Max     0.014597831 RMS     0.007022057

 GradGradGradGradGradGradGradGradGradGradGradGradGradGradGradGradGradGrad
 Berny optimization.
 FormGI is forming the generalized inverse of G from B-inverse, IUseBI=4.
 Internal  Forces:  Max     0.030198060 RMS     0.009263908
 Search for a local minimum.
 Step number   1 out of a maximum of   25
 All quantities printed in internal units (Hartrees-Bohrs-Radians)
 Mixed Optimization -- RFO/linear search
 Second derivative matrix not updated -- first step.
 The second derivative matrix:
                          R1        R2        R3        R4        R5
           R1           0.60818
           R2           0.00000   0.35131
           R3           0.00000   0.00000   0.35131
           R4           0.00000   0.00000   0.00000   0.35131
           R5           0.00000   0.00000   0.00000   0.00000   0.35131
           A1           0.00000   0.00000   0.00000   0.00000   0.00000
           A2           0.00000   0.00000   0.00000   0.00000   0.00000
           A3           0.00000   0.00000   0.00000   0.00000   0.00000
           A4           0.00000   0.00000   0.00000   0.00000   0.00000
           A5           0.00000   0.00000   0.00000   0.00000   0.00000
           A6           0.00000   0.00000   0.00000   0.00000   0.00000
           D1           0.00000   0.00000   0.00000   0.00000   0.00000
           D2           0.00000   0.00000   0.00000   0.00000   0.00000
           D3           0.00000   0.00000   0.00000   0.00000   0.00000
           D4           0.00000   0.00000   0.00000   0.00000   0.00000
                          A1        A2        A3        A4        A5
           A1           0.16000
           A2           0.00000   0.16000
           A3           0.00000   0.00000   0.16000
           A4           0.00000   0.00000   0.00000   0.16000
           A5           0.00000   0.00000   0.00000   0.00000   0.16000
           A6           0.00000   0.00000   0.00000   0.00000   0.00000
           D1           0.00000   0.00000   0.00000   0.00000   0.00000
           D2           0.00000   0.00000   0.00000   0.00000   0.00000
           D3           0.00000   0.00000   0.00000   0.00000   0.00000
           D4           0.00000   0.00000   0.00000   0.00000   0.00000
                          A6        D1        D2        D3        D4
           A6           0.16000
           D1           0.00000   0.03087
           D2           0.00000   0.00000   0.03087
           D3           0.00000   0.00000   0.00000   0.03087
           D4           0.00000   0.00000   0.00000   0.00000   0.03087
 ITU=  0
     Eigenvalues ---    0.03087   0.03087   0.03087   0.16000   0.16000
     Eigenvalues ---    0.16000   0.16000   0.35131   0.35131   0.35131
     Eigenvalues ---    0.35131   0.60818
 RFO step:  Lambda=-2.68478111D-03 EMin= 3.08716499D-02
 Linear search not attempted -- first point.
 Iteration  1 RMS(Cart)=  0.03160179 RMS(Int)=  0.00014072
 Iteration  2 RMS(Cart)=  0.00016335 RMS(Int)=  0.00000001
 Iteration  3 RMS(Cart)=  0.00000001 RMS(Int)=  0.00000000
 Variable       Old X    -DE/DX   Delta X   Delta X   Delta X     New X
                                 (Linear)    (Quad)   (Total)
    R1        2.50299   0.03020   0.00000   0.04943   0.04943   2.55242
    R2        2.05463   0.00916   0.00000   0.02588   0.02588   2.08051
    R3        2.05462   0.00917   0.00000   0.02589   0.02589   2.08051
    R4        2.05463   0.00916   0.00000   0.02588   0.02588   2.08051
    R5        2.05463   0.00916   0.00000   0.02588   0.02588   2.08051
    A1        2.11435   0.00182   0.00000   0.01117   0.01117   2.12552
    A2        2.11435   0.00182   0.00000   0.01117   0.01117   2.12551
    A3        2.05449  -0.00363   0.00000  -0.02234  -0.02234   2.03216
    A4        2.11436   0.00182   0.00000   0.01116   0.01116   2.12552
    A5        2.11435   0.00182   0.00000   0.01117   0.01117   2.12552
    A6        2.05448  -0.00363   0.00000  -0.02233  -0.02233   2.03215
    D1        0.00000   0.00000   0.00000   0.00000   0.00000   0.00000
    D2        3.14159   0.00000   0.00000   0.00000   0.00000  -3.14159
    D3       -3.14159   0.00000   0.00000  -0.00001  -0.00001   3.14159
    D4        0.00000   0.00000   0.00000   0.00000   0.00000   0.00000
         Item               Value     Threshold  Converged?
 Maximum Force            0.030198     0.000450     NO 
 RMS     Force            0.009264     0.000300     NO 
 Maximum Displacement     0.056574     0.001800     NO 
 RMS     Displacement     0.031667     0.001200     NO 
 Predicted change in Energy=-1.351276D-03
 GradGradGradGradGradGradGradGradGradGradGradGradGradGradGradGradGradGrad

                          Input orientation:                          
 ---------------------------------------------------------------------
 Center     Atomic      Atomic             Coordinates (Angstroms)
 Number     Number       Type             X           Y           Z
 ---------------------------------------------------------------------
      1          6           0       -0.757658   -1.175819    1.562431
      2          6           0        0.460861   -0.838483    1.087285
      3          1           0       -0.877975   -1.860163    2.416425
      4          1           0       -1.683618   -0.781124    1.116419
      5          1           0        1.386821   -1.233173    1.533297
      6          1           0        0.581178   -0.154137    0.233292
 ---------------------------------------------------------------------
                    Distance matrix (angstroms):
                    1          2          3          4          5
     1  C    0.000000
     2  C    1.350683   0.000000
     3  H    1.100958   2.145442   0.000000
     4  H    1.100960   2.145443   1.871737   0.000000
     5  H    2.145443   1.100959   2.510444   3.131410   0.000000
     6  H    2.145443   1.100958   3.131408   2.510443   1.871735
                    6
     6  H    0.000000
 Stoichiometry    C2H4
 Framework group  C1[X(C2H4)]
 Deg. of freedom    12
 Full point group                 C1      NOp   1
 Largest Abelian subgroup         C1      NOp   1
 Largest concise Abelian subgroup C1      NOp   1
                         Standard orientation:                         
 ---------------------------------------------------------------------
 Center     Atomic      Atomic             Coordinates (Angstroms)
 Number     Number       Type             X           Y           Z
 ---------------------------------------------------------------------
      1          6           0        0.675342    0.000000    0.000000
      2          6           0       -0.675342    0.000000    0.000000
      3          1           0        1.255221   -0.935868    0.000000
      4          1           0        1.255222    0.935869   -0.000001
      5          1           0       -1.255223   -0.935867   -0.000001
      6          1           0       -1.255221    0.935868    0.000000
 ---------------------------------------------------------------------
 Rotational constants (GHZ):    143.1339790     29.2165155     24.2637895
 Standard basis: STO-3G (5D, 7F)
 There are    14 symmetry adapted cartesian basis functions of A   symmetry.
 There are    14 symmetry adapted basis functions of A   symmetry.
    14 basis functions,    42 primitive gaussians,    14 cartesian basis functions
     8 alpha electrons        8 beta electrons
       nuclear repulsion energy        32.8845256302 Hartrees.
 NAtoms=    6 NActive=    6 NUniq=    6 SFac= 1.00D+00 NAtFMM=   60 NAOKFM=F Big=F
 Integral buffers will be    131072 words long.
 Raffenetti 1 integral format.
 Two-electron integral symmetry is turned on.
 One-electron integrals computed using PRISM.
 NBasis=    14 RedAO= T EigKep=  2.00D-01  NBF=    14
 NBsUse=    14 1.00D-06 EigRej= -1.00D+00 NBFU=    14
 Initial guess from the checkpoint file:  "/scr/Gau-17293.chk"
 B after Tr=     0.000000    0.000000    0.000000
         Rot=    1.000000    0.000000    0.000000    0.000000 Ang=   0.00 deg.
 ExpMin= 1.69D-01 ExpMax= 7.16D+01 ExpMxC= 7.16D+01 IAcc=1 IRadAn=         1 AccDes= 0.00D+00
 Harris functional with IExCor=  205 and IRadAn=       1 diagonalized for initial guess.
 HarFok:  IExCor=  205 AccDes= 0.00D+00 IRadAn=         1 IDoV= 1 UseB2=F ITyADJ=14
 ICtDFT=  3500011 ScaDFX=  1.000000  1.000000  1.000000  1.000000
 FoFCou: FMM=F IPFlag=           0 FMFlag=      100000 FMFlg1=           0
         NFxFlg=           0 DoJE=T BraDBF=F KetDBF=T FulRan=T
         wScrn=  0.000000 ICntrl=     500 IOpCl=  0 I1Cent=   200000004 NGrid=           0
         NMat0=    1 NMatS0=      1 NMatT0=    0 NMatD0=    1 NMtDS0=    0 NMtDT0=    0
 Petite list used in FoFCou.
 Keep R1 ints in memory in canonical form, NReq=831627.
 Requested convergence on RMS density matrix=1.00D-08 within 128 cycles.
 Requested convergence on MAX density matrix=1.00D-06.
 Requested convergence on             energy=1.00D-06.
 No special actions if energy rises.
 SCF Done:  E(RHF) =  -77.0697255478     A.U. after    7 cycles
            NFock=  7  Conv=0.32D-08     -V/T= 2.0076
 ExpMin= 1.69D-01 ExpMax= 7.16D+01 ExpMxC= 7.16D+01 IAcc=3 IRadAn=         5 AccDes= 0.00D+00
 HarFok:  IExCor=  205 AccDes= 0.00D+00 IRadAn=         5 IDoV=-2 UseB2=F ITyADJ=14
 ICtDFT= 12500011 ScaDFX=  1.000000  1.000000  1.000000  1.000000
 Range of M.O.s used for correlation:     3    14
 NBasis=    14 NAE=     8 NBE=     8 NFC=     2 NFV=     0
 NROrb=     12 NOA=     6 NOB=     6 NVA=     6 NVB=     6
 Fully direct method using O(ONN) memory.
 JobTyp=1 Pass  1:  I=   3 to   8 NPSUse=  3 ParTrn=F ParDer=T DoDerP=T.
 Spin components of T(2) and E(2):
     alpha-alpha T2 =       0.3523368531D-02 E2=     -0.8166245943D-02
     alpha-beta  T2 =       0.5276598940D-01 E2=     -0.1093116533D+00
     beta-beta   T2 =       0.3523368531D-02 E2=     -0.8166245943D-02
 ANorm=    0.1029472062D+01
 E2 =    -0.1256441452D+00 EUMP2 =    -0.77195369692951D+02
          IDoAtm=111111
          Differentiating once with respect to electric field.
                with respect to dipole field.
          Differentiating once with respect to nuclear coordinates.
 Keep R1 ints in memory in canonical form, NReq=814237.
          There are     1 degrees of freedom in the 1st order CPHF.  IDoFFX=0 NUNeed=     1.
 LinEq1:  Iter=  0 NonCon=     1 RMS=3.23D-03 Max=1.49D-02 NDo=     1
 AX will form     1 AO Fock derivatives at one time.
 LinEq1:  Iter=  1 NonCon=     1 RMS=7.99D-05 Max=3.73D-04 NDo=     1
 LinEq1:  Iter=  2 NonCon=     1 RMS=8.53D-06 Max=3.41D-05 NDo=     1
 LinEq1:  Iter=  3 NonCon=     1 RMS=4.76D-07 Max=1.92D-06 NDo=     1
 LinEq1:  Iter=  4 NonCon=     1 RMS=4.05D-08 Max=1.53D-07 NDo=     1
 LinEq1:  Iter=  5 NonCon=     1 RMS=3.12D-09 Max=1.37D-08 NDo=     1
 LinEq1:  Iter=  6 NonCon=     0 RMS=6.97D-11 Max=2.40D-10 NDo=     1
 Linear equations converged to 1.000D-10 1.000D-09 after     6 iterations.
 End of Minotr F.D. properties file   721 does not exist.
 End of Minotr F.D. properties file   722 does not exist.
 End of Minotr F.D. properties file   788 does not exist.
 Calling FoFJK, ICntrl=  10002127 FMM=F ISym2X=0 I1Cent= 0 IOpClX= 0 NMat=1 NMatS=1 NMatT=0.
 ***** Axes restored to original set *****
 -------------------------------------------------------------------
 Center     Atomic                   Forces (Hartrees/Bohr)
 Number     Number              X              Y              Z
 -------------------------------------------------------------------
      1        6           0.004346519    0.001204215   -0.001695763
      2        6          -0.004346879   -0.001203380    0.001695223
      3        1           0.000516285    0.001251512   -0.001575659
      4        1           0.001889301   -0.000586490    0.000638559
      5        1          -0.001888723    0.000585833   -0.000638151
      6        1          -0.000516502   -0.001251689    0.001575791
 -------------------------------------------------------------------
 Cartesian Forces:  Max     0.004346879 RMS     0.001881286

 GradGradGradGradGradGradGradGradGradGradGradGradGradGradGradGradGradGrad
 Berny optimization.
 Using GEDIIS/GDIIS optimizer.
 FormGI is forming the generalized inverse of G from B-inverse, IUseBI=4.
 Internal  Forces:  Max     0.007484446 RMS     0.002212700
 Search for a local minimum.
 Step number   2 out of a maximum of   25
 All quantities printed in internal units (Hartrees-Bohrs-Radians)
 Mixed Optimization -- RFO/linear search
 Update second derivatives using D2CorX and points    1    2
 DE= -1.01D-03 DEPred=-1.35D-03 R= 7.45D-01
 TightC=F SS=  1.41D+00  RLast= 8.14D-02 DXNew= 5.0454D-01 2.4408D-01
 Trust test= 7.45D-01 RLast= 8.14D-02 DXMaxT set to 3.00D-01
 The second derivative matrix:
                          R1        R2        R3        R4        R5
           R1           0.70020
           R2           0.02580   0.35850
           R3           0.02581   0.00720   0.35852
           R4           0.02580   0.00720   0.00720   0.35851
           R5           0.02580   0.00720   0.00720   0.00720   0.35851
           A1           0.00296   0.00079   0.00079   0.00079   0.00079
           A2           0.00296   0.00079   0.00079   0.00079   0.00079
           A3          -0.00592  -0.00157  -0.00157  -0.00157  -0.00157
           A4           0.00296   0.00079   0.00079   0.00079   0.00079
           A5           0.00296   0.00079   0.00079   0.00079   0.00079
           A6          -0.00593  -0.00157  -0.00158  -0.00158  -0.00158
           D1           0.00000   0.00000   0.00000   0.00000   0.00000
           D2           0.00000   0.00000   0.00000   0.00000   0.00000
           D3           0.00000   0.00000   0.00000   0.00000   0.00000
           D4           0.00000   0.00000   0.00000   0.00000   0.00000
                          A1        A2        A3        A4        A5
           A1           0.16004
           A2           0.00004   0.16004
           A3          -0.00008  -0.00008   0.16017
           A4           0.00004   0.00004  -0.00008   0.16004
           A5           0.00004   0.00004  -0.00008   0.00004   0.16004
           A6          -0.00008  -0.00008   0.00017  -0.00008  -0.00008
           D1           0.00000   0.00000   0.00000   0.00000   0.00000
           D2           0.00000   0.00000   0.00000   0.00000   0.00000
           D3           0.00000   0.00000   0.00000   0.00000   0.00000
           D4           0.00000   0.00000   0.00000   0.00000   0.00000
                          A6        D1        D2        D3        D4
           A6           0.16017
           D1           0.00000   0.03087
           D2           0.00000   0.00000   0.03087
           D3           0.00000   0.00000   0.00000   0.03087
           D4           0.00000   0.00000   0.00000   0.00000   0.03087
 ITU=  1  0
 Use linear search instead of GDIIS.
     Eigenvalues ---    0.03087   0.03087   0.03087   0.16000   0.16000
     Eigenvalues ---    0.16000   0.16021   0.35131   0.35131   0.35131
     Eigenvalues ---    0.37207   0.70853
 RFO step:  Lambda=-1.72163459D-06 EMin= 3.08716499D-02
 Quartic linear search produced a step of -0.19386.
 Iteration  1 RMS(Cart)=  0.00567465 RMS(Int)=  0.00000288
 Iteration  2 RMS(Cart)=  0.00000328 RMS(Int)=  0.00000000
 Iteration  3 RMS(Cart)=  0.00000000 RMS(Int)=  0.00000000
 Variable       Old X    -DE/DX   Delta X   Delta X   Delta X     New X
                                 (Linear)    (Quad)   (Total)
    R1        2.55242  -0.00748  -0.00958  -0.00061  -0.01019   2.54223
    R2        2.08051  -0.00206  -0.00502   0.00004  -0.00498   2.07553
    R3        2.08051  -0.00206  -0.00502   0.00004  -0.00498   2.07553
    R4        2.08051  -0.00206  -0.00502   0.00004  -0.00498   2.07553
    R5        2.08051  -0.00206  -0.00502   0.00004  -0.00498   2.07553
    A1        2.12552  -0.00020  -0.00217   0.00088  -0.00128   2.12423
    A2        2.12551  -0.00020  -0.00216   0.00088  -0.00128   2.12423
    A3        2.03216   0.00041   0.00433  -0.00177   0.00256   2.03472
    A4        2.12552  -0.00020  -0.00216   0.00088  -0.00128   2.12423
    A5        2.12552  -0.00020  -0.00217   0.00088  -0.00128   2.12423
    A6        2.03215   0.00041   0.00433  -0.00176   0.00257   2.03472
    D1        0.00000   0.00000   0.00000   0.00000   0.00000   0.00000
    D2       -3.14159   0.00000   0.00000   0.00000   0.00000   3.14159
    D3        3.14159   0.00000   0.00000   0.00000   0.00001  -3.14159
    D4        0.00000   0.00000   0.00000   0.00000   0.00000   0.00000
         Item               Value     Threshold  Converged?
 Maximum Force            0.007484     0.000450     NO 
 RMS     Force            0.002213     0.000300     NO 
 Maximum Displacement     0.010228     0.001800     NO 
 RMS     Displacement     0.005674     0.001200     NO 
 Predicted change in Energy=-5.764064D-05
 GradGradGradGradGradGradGradGradGradGradGradGradGradGradGradGradGradGrad

                          Input orientation:                          
 ---------------------------------------------------------------------
 Center     Atomic      Atomic             Coordinates (Angstroms)
 Number     Number       Type             X           Y           Z
 ---------------------------------------------------------------------
      1          6           0       -0.755224   -1.175144    1.561483
      2          6           0        0.458427   -0.839155    1.088235
      3          1           0       -0.873854   -1.857979    2.413525
      4          1           0       -1.678205   -0.780671    1.115602
      5          1           0        1.381409   -1.233630    1.534114
      6          1           0        0.577057   -0.156321    0.236192
 ---------------------------------------------------------------------
                    Distance matrix (angstroms):
                    1          2          3          4          5
     1  C    0.000000
     2  C    1.345289   0.000000
     3  H    1.098323   2.137608   0.000000
     4  H    1.098323   2.137608   1.868737   0.000000
     5  H    2.137609   1.098323   2.499877   3.121147   0.000000
     6  H    2.137608   1.098323   3.121148   2.499876   1.868737
                    6
     6  H    0.000000
 Stoichiometry    C2H4
 Framework group  C1[X(C2H4)]
 Deg. of freedom    12
 Full point group                 C1      NOp   1
 Largest Abelian subgroup         C1      NOp   1
 Largest concise Abelian subgroup C1      NOp   1
                         Standard orientation:                         
 ---------------------------------------------------------------------
 Center     Atomic      Atomic             Coordinates (Angstroms)
 Number     Number       Type             X           Y           Z
 ---------------------------------------------------------------------
      1          6           0        0.672644    0.000000    0.000000
      2          6           0       -0.672644    0.000000    0.000000
      3          1           0        1.249939   -0.934368    0.000000
      4          1           0        1.249938    0.934369    0.000001
      5          1           0       -1.249939   -0.934368    0.000001
      6          1           0       -1.249938    0.934368    0.000000
 ---------------------------------------------------------------------
 Rotational constants (GHZ):    143.5938272     29.4559711     24.4420720
 Standard basis: STO-3G (5D, 7F)
 There are    14 symmetry adapted cartesian basis functions of A   symmetry.
 There are    14 symmetry adapted basis functions of A   symmetry.
    14 basis functions,    42 primitive gaussians,    14 cartesian basis functions
     8 alpha electrons        8 beta electrons
       nuclear repulsion energy        32.9942658515 Hartrees.
 NAtoms=    6 NActive=    6 NUniq=    6 SFac= 1.00D+00 NAtFMM=   60 NAOKFM=F Big=F
 Integral buffers will be    131072 words long.
 Raffenetti 1 integral format.
 Two-electron integral symmetry is turned on.
 One-electron integrals computed using PRISM.
 NBasis=    14 RedAO= T EigKep=  1.97D-01  NBF=    14
 NBsUse=    14 1.00D-06 EigRej= -1.00D+00 NBFU=    14
 Initial guess from the checkpoint file:  "/scr/Gau-17293.chk"
 B after Tr=     0.000000    0.000000    0.000000
         Rot=    1.000000    0.000000    0.000000    0.000000 Ang=   0.00 deg.
 Keep R1 ints in memory in canonical form, NReq=831627.
 Requested convergence on RMS density matrix=1.00D-08 within 128 cycles.
 Requested convergence on MAX density matrix=1.00D-06.
 Requested convergence on             energy=1.00D-06.
 No special actions if energy rises.
 SCF Done:  E(RHF) =  -77.0706898311     A.U. after    6 cycles
            NFock=  6  Conv=0.24D-08     -V/T= 2.0074
 ExpMin= 1.69D-01 ExpMax= 7.16D+01 ExpMxC= 7.16D+01 IAcc=3 IRadAn=         5 AccDes= 0.00D+00
 HarFok:  IExCor=  205 AccDes= 0.00D+00 IRadAn=         5 IDoV=-2 UseB2=F ITyADJ=14
 ICtDFT= 12500011 ScaDFX=  1.000000  1.000000  1.000000  1.000000
 Range of M.O.s used for correlation:     3    14
 NBasis=    14 NAE=     8 NBE=     8 NFC=     2 NFV=     0
 NROrb=     12 NOA=     6 NOB=     6 NVA=     6 NVB=     6
 Fully direct method using O(ONN) memory.
 JobTyp=1 Pass  1:  I=   3 to   8 NPSUse=  3 ParTrn=F ParDer=T DoDerP=T.
 Spin components of T(2) and E(2):
     alpha-alpha T2 =       0.3471752786D-02 E2=     -0.8091341842D-02
     alpha-beta  T2 =       0.5212609208D-01 E2=     -0.1085581564D+00
     beta-beta   T2 =       0.3471752786D-02 E2=     -0.8091341842D-02
 ANorm=    0.1029111072D+01
 E2 =    -0.1247408401D+00 EUMP2 =    -0.77195430671207D+02
          IDoAtm=111111
          Differentiating once with respect to electric field.
                with respect to dipole field.
          Differentiating once with respect to nuclear coordinates.
 Keep R1 ints in memory in canonical form, NReq=814237.
          There are     1 degrees of freedom in the 1st order CPHF.  IDoFFX=0 NUNeed=     1.
 LinEq1:  Iter=  0 NonCon=     1 RMS=3.22D-03 Max=1.48D-02 NDo=     1
 AX will form     1 AO Fock derivatives at one time.
 LinEq1:  Iter=  1 NonCon=     1 RMS=7.89D-05 Max=3.64D-04 NDo=     1
 LinEq1:  Iter=  2 NonCon=     1 RMS=8.22D-06 Max=3.19D-05 NDo=     1
 LinEq1:  Iter=  3 NonCon=     1 RMS=4.65D-07 Max=1.87D-06 NDo=     1
 LinEq1:  Iter=  4 NonCon=     1 RMS=3.98D-08 Max=1.50D-07 NDo=     1
 LinEq1:  Iter=  5 NonCon=     1 RMS=3.07D-09 Max=1.36D-08 NDo=     1
 LinEq1:  Iter=  6 NonCon=     1 RMS=1.11D-10 Max=5.39D-10 NDo=     1
 LinEq1:  Iter=  7 NonCon=     0 RMS=3.72D-11 Max=1.10D-10 NDo=     1
 Linear equations converged to 1.000D-10 1.000D-09 after     7 iterations.
 End of Minotr F.D. properties file   721 does not exist.
 End of Minotr F.D. properties file   722 does not exist.
 End of Minotr F.D. properties file   788 does not exist.
 Calling FoFJK, ICntrl=  10002127 FMM=F ISym2X=0 I1Cent= 0 IOpClX= 0 NMat=1 NMatS=1 NMatT=0.
 ***** Axes restored to original set *****
 -------------------------------------------------------------------
 Center     Atomic                   Forces (Hartrees/Bohr)
 Number     Number              X              Y              Z
 -------------------------------------------------------------------
      1        6           0.000493792    0.000136610   -0.000192604
      2        6          -0.000493646   -0.000136721    0.000192403
      3        1          -0.000105035   -0.000026150    0.000037367
      4        1          -0.000101481   -0.000030931    0.000043217
      5        1           0.000101396    0.000031000   -0.000043043
      6        1           0.000104974    0.000026193   -0.000037340
 -------------------------------------------------------------------
 Cartesian Forces:  Max     0.000493792 RMS     0.000190236

 GradGradGradGradGradGradGradGradGradGradGradGradGradGradGradGradGradGrad
 Berny optimization.
 Using GEDIIS/GDIIS optimizer.
 FormGI is forming the generalized inverse of G from B-inverse, IUseBI=4.
 Internal  Forces:  Max     0.000318435 RMS     0.000106802
 Search for a local minimum.
 Step number   3 out of a maximum of   25
 All quantities printed in internal units (Hartrees-Bohrs-Radians)
 Mixed Optimization -- En-DIIS/RFO-DIIS
 Update second derivatives using D2CorX and points    1    2    3
 DE= -6.10D-05 DEPred=-5.76D-05 R= 1.06D+00
 TightC=F SS=  1.41D+00  RLast= 1.49D-02 DXNew= 5.0454D-01 4.4791D-02
 Trust test= 1.06D+00 RLast= 1.49D-02 DXMaxT set to 3.00D-01
 The second derivative matrix:
                          R1        R2        R3        R4        R5
           R1           0.65828
           R2           0.01979   0.35847
           R3           0.01980   0.00716   0.35848
           R4           0.01979   0.00716   0.00717   0.35847
           R5           0.01979   0.00716   0.00716   0.00716   0.35847
           A1           0.00396   0.00124   0.00124   0.00124   0.00124
           A2           0.00397   0.00124   0.00124   0.00124   0.00124
           A3          -0.00793  -0.00248  -0.00249  -0.00248  -0.00248
           A4           0.00396   0.00124   0.00124   0.00124   0.00124
           A5           0.00396   0.00124   0.00124   0.00124   0.00124
           A6          -0.00793  -0.00248  -0.00249  -0.00248  -0.00248
           D1           0.00000   0.00000   0.00000   0.00000   0.00000
           D2           0.00000   0.00000   0.00000   0.00000   0.00000
           D3          -0.00001   0.00000   0.00000   0.00000   0.00000
           D4           0.00000   0.00000   0.00000   0.00000   0.00000
                          A1        A2        A3        A4        A5
           A1           0.16013
           A2           0.00013   0.16013
           A3          -0.00027  -0.00027   0.16053
           A4           0.00013   0.00013  -0.00027   0.16013
           A5           0.00013   0.00013  -0.00027   0.00013   0.16013
           A6          -0.00027  -0.00027   0.00053  -0.00027  -0.00027
           D1           0.00000   0.00000   0.00000   0.00000   0.00000
           D2           0.00000   0.00000   0.00000   0.00000   0.00000
           D3           0.00000   0.00000   0.00000   0.00000   0.00000
           D4           0.00000   0.00000   0.00000   0.00000   0.00000
                          A6        D1        D2        D3        D4
           A6           0.16053
           D1           0.00000   0.03087
           D2           0.00000   0.00000   0.03087
           D3           0.00000   0.00000   0.00000   0.03087
           D4           0.00000   0.00000   0.00000   0.00000   0.03087
 ITU=  1  1  0
 Use linear search instead of GDIIS.
     Eigenvalues ---    0.03087   0.03087   0.03087   0.16000   0.16000
     Eigenvalues ---    0.16000   0.16096   0.35131   0.35131   0.35131
     Eigenvalues ---    0.37464   0.66424
 RFO step:  Lambda=-5.56439569D-07 EMin= 3.08716499D-02
 Quartic linear search produced a step of  0.00876.
 Iteration  1 RMS(Cart)=  0.00036217 RMS(Int)=  0.00000011
 Iteration  2 RMS(Cart)=  0.00000011 RMS(Int)=  0.00000000
 Variable       Old X    -DE/DX   Delta X   Delta X   Delta X     New X
                                 (Linear)    (Quad)   (Total)
    R1        2.54223  -0.00032  -0.00009  -0.00044  -0.00053   2.54169
    R2        2.07553   0.00006  -0.00004   0.00020   0.00016   2.07569
    R3        2.07553   0.00006  -0.00004   0.00020   0.00016   2.07569
    R4        2.07553   0.00006  -0.00004   0.00020   0.00016   2.07569
    R5        2.07553   0.00006  -0.00004   0.00020   0.00016   2.07569
    A1        2.12423   0.00007  -0.00001   0.00045   0.00043   2.12467
    A2        2.12423   0.00007  -0.00001   0.00045   0.00044   2.12467
    A3        2.03472  -0.00014   0.00002  -0.00089  -0.00087   2.03385
    A4        2.12423   0.00007  -0.00001   0.00045   0.00043   2.12467
    A5        2.12423   0.00007  -0.00001   0.00045   0.00043   2.12467
    A6        2.03472  -0.00014   0.00002  -0.00089  -0.00087   2.03385
    D1        0.00000   0.00000   0.00000   0.00000   0.00000   0.00000
    D2        3.14159   0.00000   0.00000   0.00000   0.00000  -3.14159
    D3       -3.14159   0.00000   0.00000   0.00000   0.00000   3.14159
    D4        0.00000   0.00000   0.00000   0.00000   0.00000   0.00000
         Item               Value     Threshold  Converged?
 Maximum Force            0.000318     0.000450     YES
 RMS     Force            0.000107     0.000300     YES
 Maximum Displacement     0.000673     0.001800     YES
 RMS     Displacement     0.000362     0.001200     YES
 Predicted change in Energy=-2.825498D-07
 Optimization completed.
    -- Stationary point found.
                           ----------------------------
                           !   Optimized Parameters   !
                           ! (Angstroms and Degrees)  !
 --------------------------                            --------------------------
 ! Name  Definition              Value          Derivative Info.                !
 --------------------------------------------------------------------------------
 ! R1    R(1,2)                  1.3453         -DE/DX =   -0.0003              !
 ! R2    R(1,3)                  1.0983         -DE/DX =    0.0001              !
 ! R3    R(1,4)                  1.0983         -DE/DX =    0.0001              !
 ! R4    R(2,5)                  1.0983         -DE/DX =    0.0001              !
 ! R5    R(2,6)                  1.0983         -DE/DX =    0.0001              !
 ! A1    A(2,1,3)              121.7096         -DE/DX =    0.0001              !
 ! A2    A(2,1,4)              121.7096         -DE/DX =    0.0001              !
 ! A3    A(3,1,4)              116.5808         -DE/DX =   -0.0001              !
 ! A4    A(1,2,5)              121.7096         -DE/DX =    0.0001              !
 ! A5    A(1,2,6)              121.7096         -DE/DX =    0.0001              !
 ! A6    A(5,2,6)              116.5808         -DE/DX =   -0.0001              !
 ! D1    D(3,1,2,5)              0.0            -DE/DX =    0.0                 !
 ! D2    D(3,1,2,6)           -180.0001         -DE/DX =    0.0                 !
 ! D3    D(4,1,2,5)            180.0001         -DE/DX =    0.0                 !
 ! D4    D(4,1,2,6)              0.0            -DE/DX =    0.0                 !
 --------------------------------------------------------------------------------
 GradGradGradGradGradGradGradGradGradGradGradGradGradGradGradGradGradGrad

                          Input orientation:                          
 ---------------------------------------------------------------------
 Center     Atomic      Atomic             Coordinates (Angstroms)
 Number     Number       Type             X           Y           Z
 ---------------------------------------------------------------------
      1          6           0       -0.755224   -1.175144    1.561483
      2          6           0        0.458427   -0.839155    1.088235
      3          1           0       -0.873854   -1.857979    2.413525
      4          1           0       -1.678205   -0.780671    1.115602
      5          1           0        1.381409   -1.233630    1.534114
      6          1           0        0.577057   -0.156321    0.236192
 ---------------------------------------------------------------------
                    Distance matrix (angstroms):
                    1          2          3          4          5
     1  C    0.000000
     2  C    1.345289   0.000000
     3  H    1.098323   2.137608   0.000000
     4  H    1.098323   2.137608   1.868737   0.000000
     5  H    2.137609   1.098323   2.499877   3.121147   0.000000
     6  H    2.137608   1.098323   3.121148   2.499876   1.868737
                    6
     6  H    0.000000
 Stoichiometry    C2H4
 Framework group  C1[X(C2H4)]
 Deg. of freedom    12
 Full point group                 C1      NOp   1
 Largest Abelian subgroup         C1      NOp   1
 Largest concise Abelian subgroup C1      NOp   1
                         Standard orientation:                         
 ---------------------------------------------------------------------
 Center     Atomic      Atomic             Coordinates (Angstroms)
 Number     Number       Type             X           Y           Z
 ---------------------------------------------------------------------
      1          6           0        0.672644    0.000000    0.000000
      2          6           0       -0.672644    0.000000    0.000000
      3          1           0        1.249939   -0.934368    0.000000
      4          1           0        1.249938    0.934369    0.000001
      5          1           0       -1.249939   -0.934368    0.000001
      6          1           0       -1.249938    0.934368    0.000000
 ---------------------------------------------------------------------
 Rotational constants (GHZ):    143.5938272     29.4559711     24.4420720

 **********************************************************************

            Population analysis using the SCF density.

 **********************************************************************

 Orbital symmetries:
       Occupied  (A) (A) (A) (A) (A) (A) (A) (A)
       Virtual   (A) (A) (A) (A) (A) (A)
 The electronic state is 1-A.
 Alpha  occ. eigenvalues --  -11.02000 -11.01928  -0.97077  -0.73965  -0.59391
 Alpha  occ. eigenvalues --   -0.52641  -0.45742  -0.32022
 Alpha virt. eigenvalues --    0.31627   0.61667   0.67547   0.67827   0.92059
 Alpha virt. eigenvalues --    0.97221
          Condensed to atoms (all electrons):
               1          2          3          4          5          6
     1  C    4.794716   0.596707   0.388847   0.388847  -0.024545  -0.024545
     2  C    0.596707   4.794716  -0.024545  -0.024545   0.388847   0.388847
     3  H    0.388847  -0.024545   0.601610  -0.023509  -0.004217   0.001802
     4  H    0.388847  -0.024545  -0.023509   0.601610   0.001802  -0.004217
     5  H   -0.024545   0.388847  -0.004217   0.001802   0.601610  -0.023509
     6  H   -0.024545   0.388847   0.001802  -0.004217  -0.023509   0.601610
 Mulliken charges:
               1
     1  C   -0.120026
     2  C   -0.120026
     3  H    0.060013
     4  H    0.060013
     5  H    0.060013
     6  H    0.060013
 Sum of Mulliken charges =   0.00000
 Mulliken charges with hydrogens summed into heavy atoms:
               1
     1  C    0.000000
     2  C    0.000000
 Electronic spatial extent (au):  <R**2>=             81.8536
 Charge=              0.0000 electrons
 Dipole moment (field-independent basis, Debye):
    X=              0.0000    Y=              0.0000    Z=              0.0000  Tot=              0.0000
 Quadrupole moment (field-independent basis, Debye-Ang):
   XX=            -11.9199   YY=            -11.8051   ZZ=            -13.5016
   XY=              0.0000   XZ=              0.0000   YZ=              0.0000
 Traceless Quadrupole moment (field-independent basis, Debye-Ang):
   XX=              0.4890   YY=              0.6038   ZZ=             -1.0927
   XY=              0.0000   XZ=              0.0000   YZ=              0.0000
 Octapole moment (field-independent basis, Debye-Ang**2):
  XXX=              0.0000  YYY=              0.0000  ZZZ=              0.0000  XYY=              0.0000
  XXY=              0.0000  XXZ=              0.0000  XZZ=              0.0000  YZZ=              0.0000
  YYZ=              0.0000  XYZ=              0.0000
 Hexadecapole moment (field-independent basis, Debye-Ang**3):
 XXXX=            -64.8135 YYYY=            -24.3002 ZZZZ=            -10.9206 XXXY=              0.0000
 XXXZ=              0.0000 YYYX=              0.0000 YYYZ=              0.0000 ZZZX=              0.0000
 ZZZY=              0.0000 XXYY=            -12.5394 XXZZ=            -13.1460 YYZZ=             -6.4020
 XXYZ=              0.0000 YYXZ=              0.0000 ZZXY=              0.0000
 N-N= 3.299426585151D+01 E-N=-2.453425175711D+02  KE= 7.650793316086D+01
 1\1\GINC-N0297\FOpt\RMP2-FC\STO-3G\C2H4\TAIYUPAN\24-Feb-2017\0\\#n MP2
 /STO-3G Opt\\Title\\0,1\C,-0.7552242147,-1.1751440652,1.5614826893\C,0
 .4584273705,-0.8391553212,1.0882348866\H,-0.8738539976,-1.8579791675,2
 .4135248924\H,-1.678205123,-0.7806707396,1.1156019031\H,1.3814088714,-
 1.2336297127,1.5341136041\H,0.5770570934,-0.1563209938,0.2361920246\\V
 ersion=ES64L-G09RevE.01\State=1-A\HF=-77.0706898\MP2=-77.1954307\RMSD=
 2.405e-09\RMSF=1.902e-04\Dipole=0.,-0.0000003,-0.0000003\PG=C01 [X(C2H
 4)]\\@


 MAN IS A SINGULAR CREATURE.  HE HAS A SET OF GIFTS
 WHICH MAKE HIM UNIQUE AMONG THE ANIMALS: SO THAT, 
 UNLIKE THEM, HE IS NOT A FIGURE IN THE LANDSCAPE --
 HE IS A SHAPER OF THE LANDSCAPE.

                       -- JACOB BRONOWSKI
 Job cpu time:       0 days  0 hours  0 minutes 22.9 seconds.
 File lengths (MBytes):  RWF=      5 Int=      0 D2E=      0 Chk=      1 Scr=      1
 Normal termination of Gaussian 09 at Fri Feb 24 00:13:07 2017.
