 Entering Gaussian System, Link 0=g09
 Input=CH2_CCSD_S.com
 Output=CH2_CCSD_S.log
 Initial command:
 /sw/contrib/gaussian/g09/E01/g09/l1.exe "/scr/Gau-25147.inp" -scrdir="/scr/"
 Entering Link 1 = /sw/contrib/gaussian/g09/E01/g09/l1.exe PID=     25148.
  
 Copyright (c) 1988,1990,1992,1993,1995,1998,2003,2009,2015,
            Gaussian, Inc.  All Rights Reserved.
  
 This is part of the Gaussian(R) 09 program.  It is based on
 the Gaussian(R) 03 system (copyright 2003, Gaussian, Inc.),
 the Gaussian(R) 98 system (copyright 1998, Gaussian, Inc.),
 the Gaussian(R) 94 system (copyright 1995, Gaussian, Inc.),
 the Gaussian 92(TM) system (copyright 1992, Gaussian, Inc.),
 the Gaussian 90(TM) system (copyright 1990, Gaussian, Inc.),
 the Gaussian 88(TM) system (copyright 1988, Gaussian, Inc.),
 the Gaussian 86(TM) system (copyright 1986, Carnegie Mellon
 University), and the Gaussian 82(TM) system (copyright 1983,
 Carnegie Mellon University). Gaussian is a federally registered
 trademark of Gaussian, Inc.
  
 This software contains proprietary and confidential information,
 including trade secrets, belonging to Gaussian, Inc.
  
 This software is provided under written license and may be
 used, copied, transmitted, or stored only in accord with that
 written license.
  
 The following legend is applicable only to US Government
 contracts under FAR:
  
                    RESTRICTED RIGHTS LEGEND
  
 Use, reproduction and disclosure by the US Government is
 subject to restrictions as set forth in subparagraphs (a)
 and (c) of the Commercial Computer Software - Restricted
 Rights clause in FAR 52.227-19.
  
 Gaussian, Inc.
 340 Quinnipiac St., Bldg. 40, Wallingford CT 06492
  
  
 ---------------------------------------------------------------
 Warning -- This program may not be used in any manner that
 competes with the business of Gaussian, Inc. or will provide
 assistance to any competitor of Gaussian, Inc.  The licensee
 of this program is prohibited from giving any competitor of
 Gaussian, Inc. access to this program.  By using this program,
 the user acknowledges that Gaussian, Inc. is engaged in the
 business of creating and licensing software in the field of
 computational chemistry and represents and warrants to the
 licensee that it is not a competitor of Gaussian, Inc. and that
 it will not use this program in any manner prohibited above.
 ---------------------------------------------------------------
  

 Cite this work as:
 Gaussian 09, Revision E.01,
 M. J. Frisch, G. W. Trucks, H. B. Schlegel, G. E. Scuseria, 
 M. A. Robb, J. R. Cheeseman, G. Scalmani, V. Barone, B. Mennucci, 
 G. A. Petersson, H. Nakatsuji, M. Caricato, X. Li, H. P. Hratchian, 
 A. F. Izmaylov, J. Bloino, G. Zheng, J. L. Sonnenberg, M. Hada, 
 M. Ehara, K. Toyota, R. Fukuda, J. Hasegawa, M. Ishida, T. Nakajima, 
 Y. Honda, O. Kitao, H. Nakai, T. Vreven, J. A. Montgomery, Jr., 
 J. E. Peralta, F. Ogliaro, M. Bearpark, J. J. Heyd, E. Brothers, 
 K. N. Kudin, V. N. Staroverov, T. Keith, R. Kobayashi, J. Normand, 
 K. Raghavachari, A. Rendell, J. C. Burant, S. S. Iyengar, J. Tomasi, 
 M. Cossi, N. Rega, J. M. Millam, M. Klene, J. E. Knox, J. B. Cross, 
 V. Bakken, C. Adamo, J. Jaramillo, R. Gomperts, R. E. Stratmann, 
 O. Yazyev, A. J. Austin, R. Cammi, C. Pomelli, J. W. Ochterski, 
 R. L. Martin, K. Morokuma, V. G. Zakrzewski, G. A. Voth, 
 P. Salvador, J. J. Dannenberg, S. Dapprich, A. D. Daniels, 
 O. Farkas, J. B. Foresman, J. V. Ortiz, J. Cioslowski, 
 and D. J. Fox, Gaussian, Inc., Wallingford CT, 2013.
 
 ******************************************
 Gaussian 09:  ES64L-G09RevE.01 30-Nov-2015
                24-Feb-2017 
 ******************************************
 %NProcShared=8
 Will use up to    8 processors via shared memory.
 ------------------
 #n CCSD/STO-3G Opt
 ------------------
 1/18=20,19=15,38=1/1,3;
 2/9=110,12=2,17=6,18=5,40=1/2;
 3/6=3,11=9,16=1,25=1,30=1,71=1/1,2,3;
 4//1;
 5/5=2,38=5/2;
 8/6=4,9=120000,10=1/1,4;
 9/5=7,15=1/13;
 11/28=-8,29=200,42=3/11;
 10/5=6/2;
 6/7=2,8=2,9=2,10=2/1;
 7/12=7/1,2,3,16;
 1/18=20,19=15/3(2);
 2/9=110/2;
 99//99;
 2/9=110/2;
 3/6=3,11=9,16=1,25=1,30=1,71=1/1,2,3;
 4/5=5,16=3,69=1/1;
 5/5=2,38=5/2;
 8/6=4,9=120000,10=1/1,4;
 9/5=7,15=1/13;
 11/28=-8,29=200,42=3/11;
 10/5=6/2;
 7/12=7/1,2,3,16;
 1/18=20,19=15/3(-9);
 2/9=110/2;
 6/7=2,8=2,9=2,10=2/1;
 99//99;
 -----
 Title
 -----
 Symbolic Z-matrix:
 Charge =  0 Multiplicity = 1
 C                    -0.74586  -1.17255   1.55783 
 C                     0.44906  -0.84175   1.09189 
 H                    -0.85261  -1.84945   2.40196 
 H                    -1.65368  -0.77653   1.10932 
 H                     1.35689  -1.23777   1.54039 
 H                     0.55581  -0.16485   0.24776 
 

 GradGradGradGradGradGradGradGradGradGradGradGradGradGradGradGradGradGrad
 Berny optimization.
 Initialization pass.
                           ----------------------------
                           !    Initial Parameters    !
                           ! (Angstroms and Degrees)  !
 --------------------------                            --------------------------
 ! Name  Definition              Value          Derivative Info.                !
 --------------------------------------------------------------------------------
 ! R1    R(1,2)                  1.3245         estimate D2E/DX2                !
 ! R2    R(1,3)                  1.0873         estimate D2E/DX2                !
 ! R3    R(1,4)                  1.0873         estimate D2E/DX2                !
 ! R4    R(2,5)                  1.0873         estimate D2E/DX2                !
 ! R5    R(2,6)                  1.0873         estimate D2E/DX2                !
 ! A1    A(2,1,3)              121.1431         estimate D2E/DX2                !
 ! A2    A(2,1,4)              121.1433         estimate D2E/DX2                !
 ! A3    A(3,1,4)              117.7137         estimate D2E/DX2                !
 ! A4    A(1,2,5)              121.1439         estimate D2E/DX2                !
 ! A5    A(1,2,6)              121.1431         estimate D2E/DX2                !
 ! A6    A(5,2,6)              117.713          estimate D2E/DX2                !
 ! D1    D(3,1,2,5)              0.0002         estimate D2E/DX2                !
 ! D2    D(3,1,2,6)            180.0            estimate D2E/DX2                !
 ! D3    D(4,1,2,5)           -179.9996         estimate D2E/DX2                !
 ! D4    D(4,1,2,6)              0.0002         estimate D2E/DX2                !
 --------------------------------------------------------------------------------
 Trust Radius=3.00D-01 FncErr=1.00D-07 GrdErr=1.00D-07
 Number of steps in this run=     25 maximum allowed number of steps=    100.
 GradGradGradGradGradGradGradGradGradGradGradGradGradGradGradGradGradGrad

                          Input orientation:                          
 ---------------------------------------------------------------------
 Center     Atomic      Atomic             Coordinates (Angstroms)
 Number     Number       Type             X           Y           Z
 ---------------------------------------------------------------------
      1          6           0       -0.745860   -1.172550    1.557830
      2          6           0        0.449060   -0.841750    1.091890
      3          1           0       -0.852610   -1.849450    2.401960
      4          1           0       -1.653680   -0.776530    1.109320
      5          1           0        1.356890   -1.237770    1.540390
      6          1           0        0.555810   -0.164850    0.247760
 ---------------------------------------------------------------------
                    Distance matrix (angstroms):
                    1          2          3          4          5
     1  C    0.000000
     2  C    1.324524   0.000000
     3  H    1.087265   2.103827   0.000000
     4  H    1.087258   2.103823   1.861126   0.000000
     5  H    2.103833   1.087262   2.449152   3.076052   0.000000
     6  H    2.103827   1.087265   3.076053   2.449139   1.861123
                    6
     6  H    0.000000
 Stoichiometry    C2H4
 Framework group  C1[X(C2H4)]
 Deg. of freedom    12
 Full point group                 C1      NOp   1
 Largest Abelian subgroup         C1      NOp   1
 Largest concise Abelian subgroup C1      NOp   1
                         Standard orientation:                         
 ---------------------------------------------------------------------
 Center     Atomic      Atomic             Coordinates (Angstroms)
 Number     Number       Type             X           Y           Z
 ---------------------------------------------------------------------
      1          6           0        0.662263    0.000001    0.000000
      2          6           0       -0.662261   -0.000001    0.000000
      3          1           0        1.224572   -0.930565    0.000000
      4          1           0        1.224569    0.930560    0.000003
      5          1           0       -1.224580   -0.930558    0.000003
      6          1           0       -1.224570    0.930565    0.000000
 ---------------------------------------------------------------------
 Rotational constants (GHZ):    144.7709037     30.4970117     25.1904631
 Standard basis: STO-3G (5D, 7F)
 There are    14 symmetry adapted cartesian basis functions of A   symmetry.
 There are    14 symmetry adapted basis functions of A   symmetry.
    14 basis functions,    42 primitive gaussians,    14 cartesian basis functions
     8 alpha electrons        8 beta electrons
       nuclear repulsion energy        33.4453569118 Hartrees.
 NAtoms=    6 NActive=    6 NUniq=    6 SFac= 1.00D+00 NAtFMM=   60 NAOKFM=F Big=F
 Integral buffers will be    131072 words long.
 Raffenetti 1 integral format.
 Two-electron integral symmetry is turned on.
 One-electron integrals computed using PRISM.
 NBasis=    14 RedAO= T EigKep=  1.86D-01  NBF=    14
 NBsUse=    14 1.00D-06 EigRej= -1.00D+00 NBFU=    14
 ExpMin= 1.69D-01 ExpMax= 7.16D+01 ExpMxC= 7.16D+01 IAcc=1 IRadAn=         1 AccDes= 0.00D+00
 Harris functional with IExCor=  205 and IRadAn=       1 diagonalized for initial guess.
 HarFok:  IExCor=  205 AccDes= 0.00D+00 IRadAn=         1 IDoV= 1 UseB2=F ITyADJ=14
 ICtDFT=  3500011 ScaDFX=  1.000000  1.000000  1.000000  1.000000
 FoFCou: FMM=F IPFlag=           0 FMFlag=      100000 FMFlg1=           0
         NFxFlg=           0 DoJE=T BraDBF=F KetDBF=T FulRan=T
         wScrn=  0.000000 ICntrl=     500 IOpCl=  0 I1Cent=   200000004 NGrid=           0
         NMat0=    1 NMatS0=      1 NMatT0=    0 NMatD0=    1 NMtDS0=    0 NMtDT0=    0
 Petite list used in FoFCou.
 Keep R1 ints in memory in canonical form, NReq=831627.
 Requested convergence on RMS density matrix=1.00D-08 within 128 cycles.
 Requested convergence on MAX density matrix=1.00D-06.
 Requested convergence on             energy=1.00D-06.
 No special actions if energy rises.
 SCF Done:  E(RHF) =  -77.0730967777     A.U. after    7 cycles
            NFock=  7  Conv=0.58D-08     -V/T= 2.0064
 ExpMin= 1.69D-01 ExpMax= 7.16D+01 ExpMxC= 7.16D+01 IAcc=3 IRadAn=         5 AccDes= 0.00D+00
 HarFok:  IExCor=  205 AccDes= 0.00D+00 IRadAn=         5 IDoV=-2 UseB2=F ITyADJ=14
 ICtDFT= 12500011 ScaDFX=  1.000000  1.000000  1.000000  1.000000
 Range of M.O.s used for correlation:     3    14
 NBasis=    14 NAE=     8 NBE=     8 NFC=     2 NFV=     0
 NROrb=     12 NOA=     6 NOB=     6 NVA=     6 NVB=     6
 Semi-Direct transformation.
 ModeAB=           2 MOrb=             6 LenV=      33443067
 LASXX=         2721 LTotXX=        2721 LenRXX=        2721
 LTotAB=        3690 MaxLAS=        7560 LenRXY=        7560
 NonZer=        8424 LenScr=      785920 LnRSAI=           0
 LnScr1=           0 LExtra=           0 Total=       796201
 MaxDsk=          -1 SrtSym=           F ITran=            4
 JobTyp=0 Pass  1:  I=   1 to   6.
 (rs|ai) integrals will be sorted in core.
 SymMOI:  orbitals are not symmetric.
 Spin components of T(2) and E(2):
     alpha-alpha T2 =       0.3280900838D-02 E2=     -0.7809404670D-02
     alpha-beta  T2 =       0.4969803247D-01 E2=     -0.1056474488D+00
     beta-beta   T2 =       0.3280900838D-02 E2=     -0.7809404670D-02
 ANorm=    0.1027745024D+01
 E2 =    -0.1212662582D+00 EUMP2 =    -0.77194363035900D+02
 Keep R2 and R3 ints in memory in canonical form, NReq=812344.
 Iterations=  50 Convergence= 0.100D-07
 Iteration Nr.   1
 **********************
 DD1Dir will call FoFMem   1 times, MxPair=        42
 NAB=    21 NAA=     0 NBB=     0.
 MP4(R+Q)=  0.12776951D-02
 E3=       -0.24555083D-01        EUMP3=      -0.77218918119D+02
 E4(DQ)=   -0.81396978D-02        UMP4(DQ)=   -0.77227057817D+02
 E4(SDQ)=  -0.82074526D-02        UMP4(SDQ)=  -0.77227125572D+02
 DE(Corr)= -0.14454369     E(Corr)=     -77.217640468    
 NORM(A)=   0.10448044D+01
 Iteration Nr.   2
 **********************
 DD1Dir will call FoFMem   1 times, MxPair=        42
 NAB=    21 NAA=     0 NBB=     0.
 DE(Corr)= -0.15459294     E(CORR)=     -77.227689714     Delta=-1.00D-02
 NORM(A)=   0.10530256D+01
 Iteration Nr.   3
 **********************
 DD1Dir will call FoFMem   1 times, MxPair=        42
 NAB=    21 NAA=     0 NBB=     0.
 DE(Corr)= -0.15876261     E(CORR)=     -77.231859384     Delta=-4.17D-03
 NORM(A)=   0.10547745D+01
 Iteration Nr.   4
 **********************
 DD1Dir will call FoFMem   1 times, MxPair=        42
 NAB=    21 NAA=     0 NBB=     0.
 DE(Corr)= -0.15946363     E(CORR)=     -77.232560410     Delta=-7.01D-04
 NORM(A)=   0.10550594D+01
 Iteration Nr.   5
 **********************
 DD1Dir will call FoFMem   1 times, MxPair=        42
 NAB=    21 NAA=     0 NBB=     0.
 DE(Corr)= -0.15952529     E(CORR)=     -77.232622072     Delta=-6.17D-05
 NORM(A)=   0.10550665D+01
 Iteration Nr.   6
 **********************
 DD1Dir will call FoFMem   1 times, MxPair=        42
 NAB=    21 NAA=     0 NBB=     0.
 DE(Corr)= -0.15952340     E(CORR)=     -77.232620179     Delta= 1.89D-06
 NORM(A)=   0.10550679D+01
 Iteration Nr.   7
 **********************
 DD1Dir will call FoFMem   1 times, MxPair=        42
 NAB=    21 NAA=     0 NBB=     0.
 DE(Corr)= -0.15952364     E(CORR)=     -77.232620421     Delta=-2.42D-07
 NORM(A)=   0.10550682D+01
 Iteration Nr.   8
 **********************
 DD1Dir will call FoFMem   1 times, MxPair=        42
 NAB=    21 NAA=     0 NBB=     0.
 DE(Corr)= -0.15952373     E(CORR)=     -77.232620510     Delta=-8.88D-08
 NORM(A)=   0.10550680D+01
 Iteration Nr.   9
 **********************
 DD1Dir will call FoFMem   1 times, MxPair=        42
 NAB=    21 NAA=     0 NBB=     0.
 DE(Corr)= -0.15952370     E(CORR)=     -77.232620481     Delta= 2.90D-08
 NORM(A)=   0.10550680D+01
 Iteration Nr.  10
 **********************
 DD1Dir will call FoFMem   1 times, MxPair=        42
 NAB=    21 NAA=     0 NBB=     0.
 DE(Corr)= -0.15952370     E(CORR)=     -77.232620481     Delta= 6.20D-11
 NORM(A)=   0.10550680D+01
 Dominant configurations:
 ***********************
 Spin Case        I    J    A    B          Value
   ABAB           8    8    9    9      -0.219224D+00
 Largest amplitude= 2.19D-01

 Z-AMPLITUDE ITERATIONS

 Iteration Nr.   1
 **********************
 DD1Dir will call FoFMem   1 times, MxPair=        42
 NAB=    21 NAA=     0 NBB=     0.
 DE(Z)  -0.15565347D+00          E(Z)=    -0.77228750252D+02
 NORM(A)=   0.10550688D+01
 Iteration Nr.   2
 **********************
 DD1Dir will call FoFMem   1 times, MxPair=        42
 NAB=    21 NAA=     0 NBB=     0.
 DE(Z)  -0.15565369D+00          E(Z)=    -0.77228750463D+02
 NORM(A)=   0.10550692D+01
 Iteration Nr.   3
 **********************
 DD1Dir will call FoFMem   1 times, MxPair=        42
 NAB=    21 NAA=     0 NBB=     0.
 DE(Z)  -0.15565375D+00          E(Z)=    -0.77228750523D+02
 NORM(A)=   0.10550748D+01
 Iteration Nr.   4
 **********************
 DD1Dir will call FoFMem   1 times, MxPair=        42
 NAB=    21 NAA=     0 NBB=     0.
 DE(Z)  -0.15565497D+00          E(Z)=    -0.77228751747D+02
 NORM(A)=   0.10550797D+01
 Iteration Nr.   5
 **********************
 DD1Dir will call FoFMem   1 times, MxPair=        42
 NAB=    21 NAA=     0 NBB=     0.
 DE(Z)  -0.15565603D+00          E(Z)=    -0.77228752806D+02
 NORM(A)=   0.10513084D+01
 Iteration Nr.   6
 **********************
 DD1Dir will call FoFMem   1 times, MxPair=        42
 NAB=    21 NAA=     0 NBB=     0.
 DE(Z)  -0.15481346D+00          E(Z)=    -0.77227910243D+02
 NORM(A)=   0.10513082D+01
 Iteration Nr.   7
 **********************
 DD1Dir will call FoFMem   1 times, MxPair=        42
 NAB=    21 NAA=     0 NBB=     0.
 DE(Z)  -0.15481341D+00          E(Z)=    -0.77227910185D+02
 NORM(A)=   0.10513081D+01
 Iteration Nr.   8
 **********************
 DD1Dir will call FoFMem   1 times, MxPair=        42
 NAB=    21 NAA=     0 NBB=     0.
 DE(Z)  -0.15481339D+00          E(Z)=    -0.77227910170D+02
 NORM(A)=   0.10513081D+01
 Iteration Nr.   9
 **********************
 DD1Dir will call FoFMem   1 times, MxPair=        42
 NAB=    21 NAA=     0 NBB=     0.
 DE(Z)  -0.15481339D+00          E(Z)=    -0.77227910167D+02
 NORM(A)=   0.10513081D+01
 Discarding MO integrals.
          IDoAtm=111111
          Differentiating once with respect to electric field.
                with respect to dipole field.
          Differentiating once with respect to nuclear coordinates.
 Keep R1 ints in memory in canonical form, NReq=814237.
          There are     1 degrees of freedom in the 1st order CPHF.  IDoFFX=0 NUNeed=     1.
 LinEq1:  Iter=  0 NonCon=     1 RMS=1.86D-03 Max=7.25D-03 NDo=     1
 AX will form     1 AO Fock derivatives at one time.
 LinEq1:  Iter=  1 NonCon=     1 RMS=1.69D-04 Max=9.30D-04 NDo=     1
 LinEq1:  Iter=  2 NonCon=     1 RMS=1.48D-05 Max=8.22D-05 NDo=     1
 LinEq1:  Iter=  3 NonCon=     1 RMS=5.24D-07 Max=1.95D-06 NDo=     1
 LinEq1:  Iter=  4 NonCon=     1 RMS=3.07D-08 Max=1.46D-07 NDo=     1
 LinEq1:  Iter=  5 NonCon=     1 RMS=3.42D-09 Max=1.19D-08 NDo=     1
 LinEq1:  Iter=  6 NonCon=     1 RMS=1.25D-09 Max=5.79D-09 NDo=     1
 LinEq1:  Iter=  7 NonCon=     0 RMS=7.82D-11 Max=2.59D-10 NDo=     1
 Linear equations converged to 1.000D-10 1.000D-09 after     7 iterations.
 End of Minotr F.D. properties file   721 does not exist.
 End of Minotr F.D. properties file   722 does not exist.
 End of Minotr F.D. properties file   788 does not exist.

 **********************************************************************

            Population analysis using the SCF density.

 **********************************************************************

 Orbital symmetries:
       Occupied  (A) (A) (A) (A) (A) (A) (A) (A)
       Virtual   (A) (A) (A) (A) (A) (A)
 The electronic state is 1-A.
 Alpha  occ. eigenvalues --  -11.02003 -11.01914  -0.98076  -0.74168  -0.60391
 Alpha  occ. eigenvalues --   -0.53023  -0.46058  -0.32804
 Alpha virt. eigenvalues --    0.32272   0.62691   0.68432   0.69189   0.94285
 Alpha virt. eigenvalues --    0.99844
          Condensed to atoms (all electrons):
               1          2          3          4          5          6
     1  C    4.788590   0.604138   0.392018   0.392019  -0.025985  -0.025986
     2  C    0.604138   4.788590  -0.025986  -0.025986   0.392018   0.392018
     3  H    0.392018  -0.025986   0.597662  -0.023215  -0.004893   0.002018
     4  H    0.392019  -0.025986  -0.023215   0.597660   0.002018  -0.004894
     5  H   -0.025985   0.392018  -0.004893   0.002018   0.597661  -0.023216
     6  H   -0.025986   0.392018   0.002018  -0.004894  -0.023216   0.597664
 Mulliken charges:
               1
     1  C   -0.124794
     2  C   -0.124792
     3  H    0.062396
     4  H    0.062397
     5  H    0.062396
     6  H    0.062396
 Sum of Mulliken charges =   0.00000
 Mulliken charges with hydrogens summed into heavy atoms:
               1
     1  C    0.000000
     2  C    0.000000
 Electronic spatial extent (au):  <R**2>=             80.2891
 Charge=              0.0000 electrons
 Dipole moment (field-independent basis, Debye):
    X=              0.0000    Y=              0.0000    Z=              0.0000  Tot=              0.0000
 Quadrupole moment (field-independent basis, Debye-Ang):
   XX=            -12.0157   YY=            -11.7697   ZZ=            -13.4781
   XY=              0.0000   XZ=              0.0000   YZ=              0.0000
 Traceless Quadrupole moment (field-independent basis, Debye-Ang):
   XX=              0.4054   YY=              0.6515   ZZ=             -1.0569
   XY=              0.0000   XZ=              0.0000   YZ=              0.0000
 Octapole moment (field-independent basis, Debye-Ang**2):
  XXX=              0.0000  YYY=              0.0000  ZZZ=              0.0000  XYY=              0.0000
  XXY=              0.0000  XXZ=              0.0000  XZZ=              0.0000  YZZ=              0.0000
  YYZ=              0.0000  XYZ=              0.0000
 Hexadecapole moment (field-independent basis, Debye-Ang**3):
 XXXX=            -63.2252 YYYY=            -24.0897 ZZZZ=            -10.8919 XXXY=              0.0000
 XXXZ=              0.0000 YYYX=              0.0000 YYYZ=              0.0000 ZZZX=              0.0000
 ZZZY=              0.0000 XXYY=            -12.3341 XXZZ=            -12.7933 YYZZ=             -6.3601
 XXYZ=              0.0000 YYXZ=              0.0000 ZZXY=              0.0000
 N-N= 3.344535691183D+01 E-N=-2.462481524719D+02  KE= 7.658000053576D+01
 Calling FoFJK, ICntrl=  10002127 FMM=F ISym2X=0 I1Cent= 0 IOpClX= 0 NMat=1 NMatS=1 NMatT=0.
 ***** Axes restored to original set *****
 -------------------------------------------------------------------
 Center     Atomic                   Forces (Hartrees/Bohr)
 Number     Number              X              Y              Z
 -------------------------------------------------------------------
      1        6          -0.019944546   -0.005525809    0.007782230
      2        6           0.019948852    0.005524692   -0.007781530
      3        1          -0.004711998   -0.009137786    0.011548122
      4        1          -0.014409992    0.003847646   -0.004095975
      5        1           0.014406305   -0.003846631    0.004095526
      6        1           0.004711379    0.009137887   -0.011548374
 -------------------------------------------------------------------
 Cartesian Forces:  Max     0.019948852 RMS     0.010366556

 GradGradGradGradGradGradGradGradGradGradGradGradGradGradGradGradGradGrad
 Berny optimization.
 FormGI is forming the generalized inverse of G from B-inverse, IUseBI=4.
 Internal  Forces:  Max     0.043304333 RMS     0.013781319
 Search for a local minimum.
 Step number   1 out of a maximum of   25
 All quantities printed in internal units (Hartrees-Bohrs-Radians)
 Mixed Optimization -- RFO/linear search
 Second derivative matrix not updated -- first step.
 The second derivative matrix:
                          R1        R2        R3        R4        R5
           R1           0.60818
           R2           0.00000   0.35131
           R3           0.00000   0.00000   0.35131
           R4           0.00000   0.00000   0.00000   0.35131
           R5           0.00000   0.00000   0.00000   0.00000   0.35131
           A1           0.00000   0.00000   0.00000   0.00000   0.00000
           A2           0.00000   0.00000   0.00000   0.00000   0.00000
           A3           0.00000   0.00000   0.00000   0.00000   0.00000
           A4           0.00000   0.00000   0.00000   0.00000   0.00000
           A5           0.00000   0.00000   0.00000   0.00000   0.00000
           A6           0.00000   0.00000   0.00000   0.00000   0.00000
           D1           0.00000   0.00000   0.00000   0.00000   0.00000
           D2           0.00000   0.00000   0.00000   0.00000   0.00000
           D3           0.00000   0.00000   0.00000   0.00000   0.00000
           D4           0.00000   0.00000   0.00000   0.00000   0.00000
                          A1        A2        A3        A4        A5
           A1           0.16000
           A2           0.00000   0.16000
           A3           0.00000   0.00000   0.16000
           A4           0.00000   0.00000   0.00000   0.16000
           A5           0.00000   0.00000   0.00000   0.00000   0.16000
           A6           0.00000   0.00000   0.00000   0.00000   0.00000
           D1           0.00000   0.00000   0.00000   0.00000   0.00000
           D2           0.00000   0.00000   0.00000   0.00000   0.00000
           D3           0.00000   0.00000   0.00000   0.00000   0.00000
           D4           0.00000   0.00000   0.00000   0.00000   0.00000
                          A6        D1        D2        D3        D4
           A6           0.16000
           D1           0.00000   0.03087
           D2           0.00000   0.00000   0.03087
           D3           0.00000   0.00000   0.00000   0.03087
           D4           0.00000   0.00000   0.00000   0.00000   0.03087
 ITU=  0
     Eigenvalues ---    0.03087   0.03087   0.03087   0.16000   0.16000
     Eigenvalues ---    0.16000   0.16000   0.35131   0.35131   0.35131
     Eigenvalues ---    0.35131   0.60818
 RFO step:  Lambda=-5.96961130D-03 EMin= 3.08716499D-02
 Linear search not attempted -- first point.
 Iteration  1 RMS(Cart)=  0.04506258 RMS(Int)=  0.00025960
 Iteration  2 RMS(Cart)=  0.00030781 RMS(Int)=  0.00000004
 Iteration  3 RMS(Cart)=  0.00000005 RMS(Int)=  0.00000000
 Variable       Old X    -DE/DX   Delta X   Delta X   Delta X     New X
                                 (Linear)    (Quad)   (Total)
    R1        2.50299   0.04330   0.00000   0.07051   0.07051   2.57350
    R2        2.05463   0.01512   0.00000   0.04231   0.04231   2.09695
    R3        2.05462   0.01512   0.00000   0.04233   0.04233   2.09695
    R4        2.05463   0.01512   0.00000   0.04232   0.04232   2.09695
    R5        2.05463   0.01512   0.00000   0.04231   0.04231   2.09695
    A1        2.11435   0.00222   0.00000   0.01339   0.01339   2.12774
    A2        2.11435   0.00222   0.00000   0.01339   0.01339   2.12774
    A3        2.05449  -0.00444   0.00000  -0.02678  -0.02678   2.02771
    A4        2.11436   0.00222   0.00000   0.01338   0.01338   2.12774
    A5        2.11435   0.00222   0.00000   0.01339   0.01339   2.12774
    A6        2.05448  -0.00444   0.00000  -0.02677  -0.02677   2.02771
    D1        0.00000   0.00000   0.00000   0.00000   0.00000   0.00000
    D2        3.14159   0.00000   0.00000   0.00000   0.00000  -3.14159
    D3       -3.14159   0.00000   0.00000  -0.00001  -0.00001   3.14159
    D4        0.00000   0.00000   0.00000   0.00000   0.00000   0.00000
         Item               Value     Threshold  Converged?
 Maximum Force            0.043304     0.000450     NO 
 RMS     Force            0.013781     0.000300     NO 
 Maximum Displacement     0.082415     0.001800     NO 
 RMS     Displacement     0.045189     0.001200     NO 
 Predicted change in Energy=-3.027445D-03
 GradGradGradGradGradGradGradGradGradGradGradGradGradGradGradGradGradGrad

                          Input orientation:                          
 ---------------------------------------------------------------------
 Center     Atomic      Atomic             Coordinates (Angstroms)
 Number     Number       Type             X           Y           Z
 ---------------------------------------------------------------------
      1          6           0       -0.762688   -1.177211    1.564393
      2          6           0        0.465891   -0.837090    1.085324
      3          1           0       -0.886405   -1.866735    2.424966
      4          1           0       -1.697292   -0.780672    1.116497
      5          1           0        1.400496   -1.233626    1.533219
      6          1           0        0.589608   -0.147565    0.224751
 ---------------------------------------------------------------------
                    Distance matrix (angstroms):
                    1          2          3          4          5
     1  C    0.000000
     2  C    1.361836   0.000000
     3  H    1.109656   2.164143   0.000000
     4  H    1.109657   2.164144   1.883922   0.000000
     5  H    2.164145   1.109656   2.534947   3.158341   0.000000
     6  H    2.164144   1.109656   3.158339   2.534945   1.883920
                    6
     6  H    0.000000
 Stoichiometry    C2H4
 Framework group  C1[X(C2H4)]
 Deg. of freedom    12
 Full point group                 C1      NOp   1
 Largest Abelian subgroup         C1      NOp   1
 Largest concise Abelian subgroup C1      NOp   1
                         Standard orientation:                         
 ---------------------------------------------------------------------
 Center     Atomic      Atomic             Coordinates (Angstroms)
 Number     Number       Type             X           Y           Z
 ---------------------------------------------------------------------
      1          6           0        0.680918    0.000000    0.000000
      2          6           0       -0.680918    0.000000    0.000000
      3          1           0        1.267472   -0.941961    0.000000
      4          1           0        1.267473    0.941961   -0.000001
      5          1           0       -1.267475   -0.941960   -0.000001
      6          1           0       -1.267473    0.941961    0.000000
 ---------------------------------------------------------------------
 Rotational constants (GHZ):    141.2883957     28.7084783     23.8602908
 Standard basis: STO-3G (5D, 7F)
 There are    14 symmetry adapted cartesian basis functions of A   symmetry.
 There are    14 symmetry adapted basis functions of A   symmetry.
    14 basis functions,    42 primitive gaussians,    14 cartesian basis functions
     8 alpha electrons        8 beta electrons
       nuclear repulsion energy        32.6168345567 Hartrees.
 NAtoms=    6 NActive=    6 NUniq=    6 SFac= 1.00D+00 NAtFMM=   60 NAOKFM=F Big=F
 Integral buffers will be    131072 words long.
 Raffenetti 1 integral format.
 Two-electron integral symmetry is turned on.
 One-electron integrals computed using PRISM.
 NBasis=    14 RedAO= T EigKep=  2.06D-01  NBF=    14
 NBsUse=    14 1.00D-06 EigRej= -1.00D+00 NBFU=    14
 Initial guess from the checkpoint file:  "/scr/Gau-25148.chk"
 B after Tr=     0.000000    0.000000    0.000000
         Rot=    1.000000    0.000000    0.000000    0.000000 Ang=   0.00 deg.
 ExpMin= 1.69D-01 ExpMax= 7.16D+01 ExpMxC= 7.16D+01 IAcc=1 IRadAn=         1 AccDes= 0.00D+00
 Harris functional with IExCor=  205 and IRadAn=       1 diagonalized for initial guess.
 HarFok:  IExCor=  205 AccDes= 0.00D+00 IRadAn=         1 IDoV= 1 UseB2=F ITyADJ=14
 ICtDFT=  3500011 ScaDFX=  1.000000  1.000000  1.000000  1.000000
 FoFCou: FMM=F IPFlag=           0 FMFlag=      100000 FMFlg1=           0
         NFxFlg=           0 DoJE=T BraDBF=F KetDBF=T FulRan=T
         wScrn=  0.000000 ICntrl=     500 IOpCl=  0 I1Cent=   200000004 NGrid=           0
         NMat0=    1 NMatS0=      1 NMatT0=    0 NMatD0=    1 NMtDS0=    0 NMtDT0=    0
 Petite list used in FoFCou.
 Keep R1 ints in memory in canonical form, NReq=831627.
 Requested convergence on RMS density matrix=1.00D-08 within 128 cycles.
 Requested convergence on MAX density matrix=1.00D-06.
 Requested convergence on             energy=1.00D-06.
 No special actions if energy rises.
 SCF Done:  E(RHF) =  -77.0667880862     A.U. after    7 cycles
            NFock=  7  Conv=0.38D-08     -V/T= 2.0081
 ExpMin= 1.69D-01 ExpMax= 7.16D+01 ExpMxC= 7.16D+01 IAcc=3 IRadAn=         5 AccDes= 0.00D+00
 HarFok:  IExCor=  205 AccDes= 0.00D+00 IRadAn=         5 IDoV=-2 UseB2=F ITyADJ=14
 ICtDFT= 12500011 ScaDFX=  1.000000  1.000000  1.000000  1.000000
 Range of M.O.s used for correlation:     3    14
 NBasis=    14 NAE=     8 NBE=     8 NFC=     2 NFV=     0
 NROrb=     12 NOA=     6 NOB=     6 NVA=     6 NVB=     6
 Semi-Direct transformation.
 ModeAB=           2 MOrb=             6 LenV=      33443123
 LASXX=         2721 LTotXX=        2721 LenRXX=        2721
 LTotAB=        3690 MaxLAS=        7560 LenRXY=        7560
 NonZer=        8424 LenScr=      785920 LnRSAI=           0
 LnScr1=           0 LExtra=           0 Total=       796201
 MaxDsk=          -1 SrtSym=           F ITran=            4
 JobTyp=0 Pass  1:  I=   1 to   6.
 (rs|ai) integrals will be sorted in core.
 SymMOI:  orbitals are not symmetric.
 Spin components of T(2) and E(2):
     alpha-alpha T2 =       0.3646650031D-02 E2=     -0.8348773218D-02
     alpha-beta  T2 =       0.5431975842D-01 E2=     -0.1112038384D+00
     beta-beta   T2 =       0.3646650031D-02 E2=     -0.8348773218D-02
 ANorm=    0.1030346087D+01
 E2 =    -0.1279013848D+00 EUMP2 =    -0.77194689471054D+02
 Keep R2 and R3 ints in memory in canonical form, NReq=812344.
 Iterations=  50 Convergence= 0.100D-07
 Iteration Nr.   1
 **********************
 DD1Dir will call FoFMem   1 times, MxPair=        42
 NAB=    21 NAA=     0 NBB=     0.
 MP4(R+Q)=  0.14732175D-02
 E3=       -0.25437631D-01        EUMP3=      -0.77220127102D+02
 E4(DQ)=   -0.86952637D-02        UMP4(DQ)=   -0.77228822366D+02
 E4(SDQ)=  -0.87671304D-02        UMP4(SDQ)=  -0.77228894232D+02
 DE(Corr)= -0.15186576     E(Corr)=     -77.218653842    
 NORM(A)=   0.10485503D+01
 Iteration Nr.   2
 **********************
 DD1Dir will call FoFMem   1 times, MxPair=        42
 NAB=    21 NAA=     0 NBB=     0.
 DE(Corr)= -0.16251331     E(CORR)=     -77.229301398     Delta=-1.06D-02
 NORM(A)=   0.10582169D+01
 Iteration Nr.   3
 **********************
 DD1Dir will call FoFMem   1 times, MxPair=        42
 NAB=    21 NAA=     0 NBB=     0.
 DE(Corr)= -0.16726345     E(CORR)=     -77.234051534     Delta=-4.75D-03
 NORM(A)=   0.10603685D+01
 Iteration Nr.   4
 **********************
 DD1Dir will call FoFMem   1 times, MxPair=        42
 NAB=    21 NAA=     0 NBB=     0.
 DE(Corr)= -0.16809678     E(CORR)=     -77.234884868     Delta=-8.33D-04
 NORM(A)=   0.10607431D+01
 Iteration Nr.   5
 **********************
 DD1Dir will call FoFMem   1 times, MxPair=        42
 NAB=    21 NAA=     0 NBB=     0.
 DE(Corr)= -0.16817824     E(CORR)=     -77.234966330     Delta=-8.15D-05
 NORM(A)=   0.10607548D+01
 Iteration Nr.   6
 **********************
 DD1Dir will call FoFMem   1 times, MxPair=        42
 NAB=    21 NAA=     0 NBB=     0.
 DE(Corr)= -0.16817675     E(CORR)=     -77.234964836     Delta= 1.49D-06
 NORM(A)=   0.10607562D+01
 Iteration Nr.   7
 **********************
 DD1Dir will call FoFMem   1 times, MxPair=        42
 NAB=    21 NAA=     0 NBB=     0.
 DE(Corr)= -0.16817692     E(CORR)=     -77.234965010     Delta=-1.74D-07
 NORM(A)=   0.10607565D+01
 Iteration Nr.   8
 **********************
 DD1Dir will call FoFMem   1 times, MxPair=        42
 NAB=    21 NAA=     0 NBB=     0.
 DE(Corr)= -0.16817702     E(CORR)=     -77.234965110     Delta=-9.98D-08
 NORM(A)=   0.10607563D+01
 Iteration Nr.   9
 **********************
 DD1Dir will call FoFMem   1 times, MxPair=        42
 NAB=    21 NAA=     0 NBB=     0.
 DE(Corr)= -0.16817700     E(CORR)=     -77.234965084     Delta= 2.59D-08
 NORM(A)=   0.10607563D+01
 Iteration Nr.  10
 **********************
 DD1Dir will call FoFMem   1 times, MxPair=        42
 NAB=    21 NAA=     0 NBB=     0.
 DE(Corr)= -0.16817701     E(CORR)=     -77.234965092     Delta=-8.11D-09
 NORM(A)=   0.10607563D+01
 Iteration Nr.  11
 **********************
 DD1Dir will call FoFMem   1 times, MxPair=        42
 NAB=    21 NAA=     0 NBB=     0.
 DE(Corr)= -0.16817701     E(CORR)=     -77.234965094     Delta=-1.78D-09
 NORM(A)=   0.10607563D+01
 Dominant configurations:
 ***********************
 Spin Case        I    J    A    B          Value
   ABAB           8    8    9    9      -0.233776D+00
 Largest amplitude= 2.34D-01

 Z-AMPLITUDE ITERATIONS

 Iteration Nr.   1
 **********************
 DD1Dir will call FoFMem   1 times, MxPair=        42
 NAB=    21 NAA=     0 NBB=     0.
 DE(Z)  -0.16353523D+00          E(Z)=    -0.77230323316D+02
 NORM(A)=   0.10607566D+01
 Iteration Nr.   2
 **********************
 DD1Dir will call FoFMem   1 times, MxPair=        42
 NAB=    21 NAA=     0 NBB=     0.
 DE(Z)  -0.16353530D+00          E(Z)=    -0.77230323386D+02
 NORM(A)=   0.10607571D+01
 Iteration Nr.   3
 **********************
 DD1Dir will call FoFMem   1 times, MxPair=        42
 NAB=    21 NAA=     0 NBB=     0.
 DE(Z)  -0.16353539D+00          E(Z)=    -0.77230323475D+02
 NORM(A)=   0.10607573D+01
 Iteration Nr.   4
 **********************
 DD1Dir will call FoFMem   1 times, MxPair=        42
 NAB=    21 NAA=     0 NBB=     0.
 DE(Z)  -0.16353543D+00          E(Z)=    -0.77230323519D+02
 NORM(A)=   0.10607606D+01
 Iteration Nr.   5
 **********************
 DD1Dir will call FoFMem   1 times, MxPair=        42
 NAB=    21 NAA=     0 NBB=     0.
 DE(Z)  -0.16353607D+00          E(Z)=    -0.77230324161D+02
 NORM(A)=   0.10561464D+01
 Iteration Nr.   6
 **********************
 DD1Dir will call FoFMem   1 times, MxPair=        42
 NAB=    21 NAA=     0 NBB=     0.
 DE(Z)  -0.16260591D+00          E(Z)=    -0.77229393992D+02
 NORM(A)=   0.10561466D+01
 Iteration Nr.   7
 **********************
 DD1Dir will call FoFMem   1 times, MxPair=        42
 NAB=    21 NAA=     0 NBB=     0.
 DE(Z)  -0.16260599D+00          E(Z)=    -0.77229394073D+02
 NORM(A)=   0.10561467D+01
 Iteration Nr.   8
 **********************
 DD1Dir will call FoFMem   1 times, MxPair=        42
 NAB=    21 NAA=     0 NBB=     0.
 DE(Z)  -0.16260608D+00          E(Z)=    -0.77229394165D+02
 NORM(A)=   0.10561468D+01
 Iteration Nr.   9
 **********************
 DD1Dir will call FoFMem   1 times, MxPair=        42
 NAB=    21 NAA=     0 NBB=     0.
 DE(Z)  -0.16260610D+00          E(Z)=    -0.77229394189D+02
 NORM(A)=   0.10561468D+01
 Iteration Nr.  10
 **********************
 DD1Dir will call FoFMem   1 times, MxPair=        42
 NAB=    21 NAA=     0 NBB=     0.
 DE(Z)  -0.16260611D+00          E(Z)=    -0.77229394196D+02
 NORM(A)=   0.10561468D+01
 Discarding MO integrals.
          IDoAtm=111111
          Differentiating once with respect to electric field.
                with respect to dipole field.
          Differentiating once with respect to nuclear coordinates.
 Keep R1 ints in memory in canonical form, NReq=814237.
          There are     1 degrees of freedom in the 1st order CPHF.  IDoFFX=0 NUNeed=     1.
 LinEq1:  Iter=  0 NonCon=     1 RMS=1.96D-03 Max=8.34D-03 NDo=     1
 AX will form     1 AO Fock derivatives at one time.
 LinEq1:  Iter=  1 NonCon=     1 RMS=1.94D-04 Max=1.01D-03 NDo=     1
 LinEq1:  Iter=  2 NonCon=     1 RMS=1.88D-05 Max=1.05D-04 NDo=     1
 LinEq1:  Iter=  3 NonCon=     1 RMS=6.09D-07 Max=2.39D-06 NDo=     1
 LinEq1:  Iter=  4 NonCon=     1 RMS=3.67D-08 Max=1.69D-07 NDo=     1
 LinEq1:  Iter=  5 NonCon=     1 RMS=3.37D-09 Max=1.38D-08 NDo=     1
 LinEq1:  Iter=  6 NonCon=     1 RMS=2.12D-10 Max=1.16D-09 NDo=     1
 LinEq1:  Iter=  7 NonCon=     0 RMS=5.63D-11 Max=1.99D-10 NDo=     1
 Linear equations converged to 1.000D-10 1.000D-09 after     7 iterations.
 End of Minotr F.D. properties file   721 does not exist.
 End of Minotr F.D. properties file   722 does not exist.
 End of Minotr F.D. properties file   788 does not exist.
 Calling FoFJK, ICntrl=  10002127 FMM=F ISym2X=0 I1Cent= 0 IOpClX= 0 NMat=1 NMatS=1 NMatT=0.
 ***** Axes restored to original set *****
 -------------------------------------------------------------------
 Center     Atomic                   Forces (Hartrees/Bohr)
 Number     Number              X              Y              Z
 -------------------------------------------------------------------
      1        6           0.004833903    0.001338813   -0.001885500
      2        6          -0.004834029   -0.001338172    0.001885006
      3        1           0.000496507    0.001685166   -0.002112338
      4        1           0.002412594   -0.000880445    0.000978615
      5        1          -0.002412238    0.000879966   -0.000978210
      6        1          -0.000496738   -0.001685327    0.002112427
 -------------------------------------------------------------------
 Cartesian Forces:  Max     0.004834029 RMS     0.002206395

 GradGradGradGradGradGradGradGradGradGradGradGradGradGradGradGradGradGrad
 Berny optimization.
 Using GEDIIS/GDIIS optimizer.
 FormGI is forming the generalized inverse of G from B-inverse, IUseBI=4.
 Internal  Forces:  Max     0.008582807 RMS     0.002632297
 Search for a local minimum.
 Step number   2 out of a maximum of   25
 All quantities printed in internal units (Hartrees-Bohrs-Radians)
 Mixed Optimization -- RFO/linear search
 Update second derivatives using D2CorX and points    1    2
 DE= -2.34D-03 DEPred=-3.03D-03 R= 7.74D-01
 TightC=F SS=  1.41D+00  RLast= 1.20D-01 DXNew= 5.0454D-01 3.5857D-01
 Trust test= 7.74D-01 RLast= 1.20D-01 DXMaxT set to 3.59D-01
 The second derivative matrix:
                          R1        R2        R3        R4        R5
           R1           0.67698
           R2           0.02291   0.35892
           R3           0.02292   0.00762   0.35894
           R4           0.02291   0.00762   0.00762   0.35893
           R5           0.02291   0.00762   0.00762   0.00762   0.35893
           A1           0.00171   0.00055   0.00055   0.00055   0.00055
           A2           0.00171   0.00055   0.00055   0.00055   0.00055
           A3          -0.00341  -0.00110  -0.00110  -0.00110  -0.00110
           A4           0.00171   0.00055   0.00055   0.00055   0.00055
           A5           0.00171   0.00055   0.00055   0.00055   0.00055
           A6          -0.00341  -0.00110  -0.00110  -0.00110  -0.00110
           D1           0.00000   0.00000   0.00000   0.00000   0.00000
           D2           0.00000   0.00000   0.00000   0.00000   0.00000
           D3           0.00000   0.00000   0.00000   0.00000   0.00000
           D4           0.00000   0.00000   0.00000   0.00000   0.00000
                          A1        A2        A3        A4        A5
           A1           0.16001
           A2           0.00001   0.16001
           A3          -0.00001  -0.00001   0.16003
           A4           0.00001   0.00001  -0.00001   0.16001
           A5           0.00001   0.00001  -0.00001   0.00001   0.16001
           A6          -0.00001  -0.00001   0.00003  -0.00001  -0.00001
           D1           0.00000   0.00000   0.00000   0.00000   0.00000
           D2           0.00000   0.00000   0.00000   0.00000   0.00000
           D3           0.00000   0.00000   0.00000   0.00000   0.00000
           D4           0.00000   0.00000   0.00000   0.00000   0.00000
                          A6        D1        D2        D3        D4
           A6           0.16003
           D1           0.00000   0.03087
           D2           0.00000   0.00000   0.03087
           D3           0.00000   0.00000   0.00000   0.03087
           D4           0.00000   0.00000   0.00000   0.00000   0.03087
 ITU=  1  0
 Use linear search instead of GDIIS.
     Eigenvalues ---    0.03087   0.03087   0.03087   0.15996   0.16000
     Eigenvalues ---    0.16000   0.16000   0.35131   0.35131   0.35131
     Eigenvalues ---    0.37488   0.68401
 RFO step:  Lambda=-2.73912389D-06 EMin= 3.08716499D-02
 Quartic linear search produced a step of -0.16552.
 Iteration  1 RMS(Cart)=  0.00692217 RMS(Int)=  0.00000327
 Iteration  2 RMS(Cart)=  0.00000383 RMS(Int)=  0.00000000
 Iteration  3 RMS(Cart)=  0.00000000 RMS(Int)=  0.00000000
 Variable       Old X    -DE/DX   Delta X   Delta X   Delta X     New X
                                 (Linear)    (Quad)   (Total)
    R1        2.57350  -0.00858  -0.01167  -0.00059  -0.01226   2.56124
    R2        2.09695  -0.00274  -0.00700  -0.00002  -0.00703   2.08992
    R3        2.09695  -0.00274  -0.00701  -0.00002  -0.00703   2.08992
    R4        2.09695  -0.00274  -0.00700  -0.00002  -0.00703   2.08992
    R5        2.09695  -0.00274  -0.00700  -0.00003  -0.00703   2.08992
    A1        2.12774  -0.00013  -0.00222   0.00115  -0.00107   2.12667
    A2        2.12774  -0.00013  -0.00222   0.00115  -0.00107   2.12667
    A3        2.02771   0.00027   0.00443  -0.00230   0.00214   2.02985
    A4        2.12774  -0.00013  -0.00221   0.00115  -0.00107   2.12667
    A5        2.12774  -0.00013  -0.00222   0.00115  -0.00107   2.12667
    A6        2.02771   0.00027   0.00443  -0.00229   0.00214   2.02985
    D1        0.00000   0.00000   0.00000   0.00000   0.00000   0.00000
    D2       -3.14159   0.00000   0.00000   0.00000   0.00000   3.14159
    D3        3.14159   0.00000   0.00000   0.00000   0.00000  -3.14159
    D4        0.00000   0.00000   0.00000   0.00000   0.00000   0.00000
         Item               Value     Threshold  Converged?
 Maximum Force            0.008583     0.000450     NO 
 RMS     Force            0.002632     0.000300     NO 
 Maximum Displacement     0.012655     0.001800     NO 
 RMS     Displacement     0.006921     0.001200     NO 
 Predicted change in Energy=-8.595079D-05
 GradGradGradGradGradGradGradGradGradGradGradGradGradGradGradGradGradGrad

                          Input orientation:                          
 ---------------------------------------------------------------------
 Center     Atomic      Atomic             Coordinates (Angstroms)
 Number     Number       Type             X           Y           Z
 ---------------------------------------------------------------------
      1          6           0       -0.759762   -1.176400    1.563252
      2          6           0        0.462965   -0.837899    1.086466
      3          1           0       -0.881889   -1.863723    2.421021
      4          1           0       -1.690595   -0.780582    1.116071
      5          1           0        1.393799   -1.233719    1.533645
      6          1           0        0.585092   -0.150577    0.228696
 ---------------------------------------------------------------------
                    Distance matrix (angstroms):
                    1          2          3          4          5
     1  C    0.000000
     2  C    1.355348   0.000000
     3  H    1.105936   2.154526   0.000000
     4  H    1.105936   2.154526   1.878855   0.000000
     5  H    2.154527   1.105936   2.522519   3.145344   0.000000
     6  H    2.154526   1.105936   3.145344   2.522517   1.878854
                    6
     6  H    0.000000
 Stoichiometry    C2H4
 Framework group  C1[X(C2H4)]
 Deg. of freedom    12
 Full point group                 C1      NOp   1
 Largest Abelian subgroup         C1      NOp   1
 Largest concise Abelian subgroup C1      NOp   1
                         Standard orientation:                         
 ---------------------------------------------------------------------
 Center     Atomic      Atomic             Coordinates (Angstroms)
 Number     Number       Type             X           Y           Z
 ---------------------------------------------------------------------
      1          6           0        0.677674    0.000000    0.000000
      2          6           0       -0.677674    0.000000    0.000000
      3          1           0        1.261259   -0.939427    0.000000
      4          1           0        1.261259    0.939427    0.000001
      5          1           0       -1.261260   -0.939427    0.000001
      6          1           0       -1.261259    0.939427    0.000000
 ---------------------------------------------------------------------
 Rotational constants (GHZ):    142.0514812     28.9869773     24.0743696
 Standard basis: STO-3G (5D, 7F)
 There are    14 symmetry adapted cartesian basis functions of A   symmetry.
 There are    14 symmetry adapted basis functions of A   symmetry.
    14 basis functions,    42 primitive gaussians,    14 cartesian basis functions
     8 alpha electrons        8 beta electrons
       nuclear repulsion energy        32.7534530532 Hartrees.
 NAtoms=    6 NActive=    6 NUniq=    6 SFac= 1.00D+00 NAtFMM=   60 NAOKFM=F Big=F
 Integral buffers will be    131072 words long.
 Raffenetti 1 integral format.
 Two-electron integral symmetry is turned on.
 One-electron integrals computed using PRISM.
 NBasis=    14 RedAO= T EigKep=  2.03D-01  NBF=    14
 NBsUse=    14 1.00D-06 EigRej= -1.00D+00 NBFU=    14
 Initial guess from the checkpoint file:  "/scr/Gau-25148.chk"
 B after Tr=     0.000000    0.000000    0.000000
         Rot=    1.000000    0.000000    0.000000    0.000000 Ang=   0.00 deg.
 Keep R1 ints in memory in canonical form, NReq=831627.
 Requested convergence on RMS density matrix=1.00D-08 within 128 cycles.
 Requested convergence on MAX density matrix=1.00D-06.
 Requested convergence on             energy=1.00D-06.
 No special actions if energy rises.
 SCF Done:  E(RHF) =  -77.0683896696     A.U. after    6 cycles
            NFock=  6  Conv=0.29D-08     -V/T= 2.0078
 ExpMin= 1.69D-01 ExpMax= 7.16D+01 ExpMxC= 7.16D+01 IAcc=3 IRadAn=         5 AccDes= 0.00D+00
 HarFok:  IExCor=  205 AccDes= 0.00D+00 IRadAn=         5 IDoV=-2 UseB2=F ITyADJ=14
 ICtDFT= 12500011 ScaDFX=  1.000000  1.000000  1.000000  1.000000
 Range of M.O.s used for correlation:     3    14
 NBasis=    14 NAE=     8 NBE=     8 NFC=     2 NFV=     0
 NROrb=     12 NOA=     6 NOB=     6 NVA=     6 NVB=     6
 Semi-Direct transformation.
 ModeAB=           2 MOrb=             6 LenV=      33443123
 LASXX=         2721 LTotXX=        2721 LenRXX=        2721
 LTotAB=        3690 MaxLAS=        7560 LenRXY=        7560
 NonZer=        8424 LenScr=      785920 LnRSAI=           0
 LnScr1=           0 LExtra=           0 Total=       796201
 MaxDsk=          -1 SrtSym=           F ITran=            4
 JobTyp=0 Pass  1:  I=   1 to   6.
 (rs|ai) integrals will be sorted in core.
 SymMOI:  orbitals are not symmetric.
 Spin components of T(2) and E(2):
     alpha-alpha T2 =       0.3579715905D-02 E2=     -0.8251780395D-02
     alpha-beta  T2 =       0.5349328073D-01 E2=     -0.1102275691D+00
     beta-beta   T2 =       0.3579715905D-02 E2=     -0.8251780395D-02
 ANorm=    0.1029879951D+01
 E2 =    -0.1267311299D+00 EUMP2 =    -0.77195120799510D+02
 Keep R2 and R3 ints in memory in canonical form, NReq=812344.
 Iterations=  50 Convergence= 0.100D-07
 Iteration Nr.   1
 **********************
 DD1Dir will call FoFMem   1 times, MxPair=        42
 NAB=    21 NAA=     0 NBB=     0.
 MP4(R+Q)=  0.14373941D-02
 E3=       -0.25297100D-01        EUMP3=      -0.77220417899D+02
 E4(DQ)=   -0.85997558D-02        UMP4(DQ)=   -0.77229017655D+02
 E4(SDQ)=  -0.86711460D-02        UMP4(SDQ)=  -0.77229089045D+02
 DE(Corr)= -0.15059081     E(Corr)=     -77.218980480    
 NORM(A)=   0.10478956D+01
 Iteration Nr.   2
 **********************
 DD1Dir will call FoFMem   1 times, MxPair=        42
 NAB=    21 NAA=     0 NBB=     0.
 DE(Corr)= -0.16113775     E(CORR)=     -77.229527421     Delta=-1.05D-02
 NORM(A)=   0.10572974D+01
 Iteration Nr.   3
 **********************
 DD1Dir will call FoFMem   1 times, MxPair=        42
 NAB=    21 NAA=     0 NBB=     0.
 DE(Corr)= -0.16578299     E(CORR)=     -77.234172665     Delta=-4.65D-03
 NORM(A)=   0.10593740D+01
 Iteration Nr.   4
 **********************
 DD1Dir will call FoFMem   1 times, MxPair=        42
 NAB=    21 NAA=     0 NBB=     0.
 DE(Corr)= -0.16659227     E(CORR)=     -77.234981941     Delta=-8.09D-04
 NORM(A)=   0.10597320D+01
 Iteration Nr.   5
 **********************
 DD1Dir will call FoFMem   1 times, MxPair=        42
 NAB=    21 NAA=     0 NBB=     0.
 DE(Corr)= -0.16667011     E(CORR)=     -77.235059778     Delta=-7.78D-05
 NORM(A)=   0.10597427D+01
 Iteration Nr.   6
 **********************
 DD1Dir will call FoFMem   1 times, MxPair=        42
 NAB=    21 NAA=     0 NBB=     0.
 DE(Corr)= -0.16666851     E(CORR)=     -77.235058180     Delta= 1.60D-06
 NORM(A)=   0.10597441D+01
 Iteration Nr.   7
 **********************
 DD1Dir will call FoFMem   1 times, MxPair=        42
 NAB=    21 NAA=     0 NBB=     0.
 DE(Corr)= -0.16666870     E(CORR)=     -77.235058373     Delta=-1.93D-07
 NORM(A)=   0.10597444D+01
 Iteration Nr.   8
 **********************
 DD1Dir will call FoFMem   1 times, MxPair=        42
 NAB=    21 NAA=     0 NBB=     0.
 DE(Corr)= -0.16666880     E(CORR)=     -77.235058471     Delta=-9.84D-08
 NORM(A)=   0.10597442D+01
 Iteration Nr.   9
 **********************
 DD1Dir will call FoFMem   1 times, MxPair=        42
 NAB=    21 NAA=     0 NBB=     0.
 DE(Corr)= -0.16666878     E(CORR)=     -77.235058445     Delta= 2.65D-08
 NORM(A)=   0.10597442D+01
 Iteration Nr.  10
 **********************
 DD1Dir will call FoFMem   1 times, MxPair=        42
 NAB=    21 NAA=     0 NBB=     0.
 DE(Corr)= -0.16666878     E(CORR)=     -77.235058451     Delta=-6.49D-09
 NORM(A)=   0.10597442D+01
 Iteration Nr.  11
 **********************
 DD1Dir will call FoFMem   1 times, MxPair=        42
 NAB=    21 NAA=     0 NBB=     0.
 DE(Corr)= -0.16666878     E(CORR)=     -77.235058453     Delta=-1.33D-09
 NORM(A)=   0.10597442D+01
 Dominant configurations:
 ***********************
 Spin Case        I    J    A    B          Value
   ABAB           8    8    9    9      -0.231208D+00
 Largest amplitude= 2.31D-01

 Z-AMPLITUDE ITERATIONS

 Iteration Nr.   1
 **********************
 DD1Dir will call FoFMem   1 times, MxPair=        42
 NAB=    21 NAA=     0 NBB=     0.
 DE(Z)  -0.16217079D+00          E(Z)=    -0.77230560462D+02
 NORM(A)=   0.10597445D+01
 Iteration Nr.   2
 **********************
 DD1Dir will call FoFMem   1 times, MxPair=        42
 NAB=    21 NAA=     0 NBB=     0.
 DE(Z)  -0.16217086D+00          E(Z)=    -0.77230560529D+02
 NORM(A)=   0.10597449D+01
 Iteration Nr.   3
 **********************
 DD1Dir will call FoFMem   1 times, MxPair=        42
 NAB=    21 NAA=     0 NBB=     0.
 DE(Z)  -0.16217093D+00          E(Z)=    -0.77230560602D+02
 NORM(A)=   0.10597454D+01
 Iteration Nr.   4
 **********************
 DD1Dir will call FoFMem   1 times, MxPair=        42
 NAB=    21 NAA=     0 NBB=     0.
 DE(Z)  -0.16217104D+00          E(Z)=    -0.77230560706D+02
 NORM(A)=   0.10597482D+01
 Iteration Nr.   5
 **********************
 DD1Dir will call FoFMem   1 times, MxPair=        42
 NAB=    21 NAA=     0 NBB=     0.
 DE(Z)  -0.16217160D+00          E(Z)=    -0.77230561267D+02
 NORM(A)=   0.10552922D+01
 Iteration Nr.   6
 **********************
 DD1Dir will call FoFMem   1 times, MxPair=        42
 NAB=    21 NAA=     0 NBB=     0.
 DE(Z)  -0.16125578D+00          E(Z)=    -0.77229645446D+02
 NORM(A)=   0.10552921D+01
 Iteration Nr.   7
 **********************
 DD1Dir will call FoFMem   1 times, MxPair=        42
 NAB=    21 NAA=     0 NBB=     0.
 DE(Z)  -0.16125593D+00          E(Z)=    -0.77229645601D+02
 NORM(A)=   0.10552924D+01
 Iteration Nr.   8
 **********************
 DD1Dir will call FoFMem   1 times, MxPair=        42
 NAB=    21 NAA=     0 NBB=     0.
 DE(Z)  -0.16125605D+00          E(Z)=    -0.77229645723D+02
 NORM(A)=   0.10552926D+01
 Iteration Nr.   9
 **********************
 DD1Dir will call FoFMem   1 times, MxPair=        42
 NAB=    21 NAA=     0 NBB=     0.
 DE(Z)  -0.16125609D+00          E(Z)=    -0.77229645757D+02
 NORM(A)=   0.10552926D+01
 Iteration Nr.  10
 **********************
 DD1Dir will call FoFMem   1 times, MxPair=        42
 NAB=    21 NAA=     0 NBB=     0.
 DE(Z)  -0.16125610D+00          E(Z)=    -0.77229645773D+02
 NORM(A)=   0.10552926D+01
 Iteration Nr.  11
 **********************
 DD1Dir will call FoFMem   1 times, MxPair=        42
 NAB=    21 NAA=     0 NBB=     0.
 DE(Z)  -0.16125611D+00          E(Z)=    -0.77229645775D+02
 NORM(A)=   0.10552926D+01
 Discarding MO integrals.
          IDoAtm=111111
          Differentiating once with respect to electric field.
                with respect to dipole field.
          Differentiating once with respect to nuclear coordinates.
 Keep R1 ints in memory in canonical form, NReq=814237.
          There are     1 degrees of freedom in the 1st order CPHF.  IDoFFX=0 NUNeed=     1.
 LinEq1:  Iter=  0 NonCon=     1 RMS=1.94D-03 Max=8.12D-03 NDo=     1
 AX will form     1 AO Fock derivatives at one time.
 LinEq1:  Iter=  1 NonCon=     1 RMS=1.89D-04 Max=9.97D-04 NDo=     1
 LinEq1:  Iter=  2 NonCon=     1 RMS=1.81D-05 Max=1.01D-04 NDo=     1
 LinEq1:  Iter=  3 NonCon=     1 RMS=5.97D-07 Max=2.34D-06 NDo=     1
 LinEq1:  Iter=  4 NonCon=     1 RMS=3.59D-08 Max=1.67D-07 NDo=     1
 LinEq1:  Iter=  5 NonCon=     1 RMS=3.25D-09 Max=1.34D-08 NDo=     1
 LinEq1:  Iter=  6 NonCon=     1 RMS=1.50D-10 Max=7.40D-10 NDo=     1
 LinEq1:  Iter=  7 NonCon=     0 RMS=5.23D-11 Max=1.65D-10 NDo=     1
 Linear equations converged to 1.000D-10 1.000D-09 after     7 iterations.
 End of Minotr F.D. properties file   721 does not exist.
 End of Minotr F.D. properties file   722 does not exist.
 End of Minotr F.D. properties file   788 does not exist.
 Calling FoFJK, ICntrl=  10002127 FMM=F ISym2X=0 I1Cent= 0 IOpClX= 0 NMat=1 NMatS=1 NMatT=0.
 ***** Axes restored to original set *****
 -------------------------------------------------------------------
 Center     Atomic                   Forces (Hartrees/Bohr)
 Number     Number              X              Y              Z
 -------------------------------------------------------------------
      1        6           0.000761270    0.000210695   -0.000296894
      2        6          -0.000761125   -0.000210730    0.000296707
      3        1          -0.000152830   -0.000052110    0.000071768
      4        1          -0.000164976   -0.000035829    0.000052218
      5        1           0.000164904    0.000035845   -0.000052057
      6        1           0.000152757    0.000052130   -0.000071742
 -------------------------------------------------------------------
 Cartesian Forces:  Max     0.000761270 RMS     0.000293320

 GradGradGradGradGradGradGradGradGradGradGradGradGradGradGradGradGradGrad
 Berny optimization.
 Using GEDIIS/GDIIS optimizer.
 FormGI is forming the generalized inverse of G from B-inverse, IUseBI=4.
 Internal  Forces:  Max     0.000491556 RMS     0.000163973
 Search for a local minimum.
 Step number   3 out of a maximum of   25
 All quantities printed in internal units (Hartrees-Bohrs-Radians)
 Mixed Optimization -- En-DIIS/RFO-DIIS
 Update second derivatives using D2CorX and points    1    2    3
 DE= -9.34D-05 DEPred=-8.60D-05 R= 1.09D+00
 TightC=F SS=  1.41D+00  RLast= 1.90D-02 DXNew= 6.0303D-01 5.7055D-02
 Trust test= 1.09D+00 RLast= 1.90D-02 DXMaxT set to 3.59D-01
 The second derivative matrix:
                          R1        R2        R3        R4        R5
           R1           0.62620
           R2           0.01347   0.35835
           R3           0.01347   0.00704   0.35836
           R4           0.01347   0.00704   0.00705   0.35835
           R5           0.01347   0.00704   0.00705   0.00704   0.35835
           A1           0.00266   0.00103   0.00103   0.00103   0.00103
           A2           0.00266   0.00103   0.00103   0.00103   0.00103
           A3          -0.00533  -0.00206  -0.00206  -0.00206  -0.00206
           A4           0.00266   0.00103   0.00103   0.00103   0.00103
           A5           0.00266   0.00103   0.00103   0.00103   0.00103
           A6          -0.00532  -0.00206  -0.00206  -0.00206  -0.00206
           D1           0.00000   0.00000   0.00000   0.00000   0.00000
           D2           0.00000   0.00000   0.00000   0.00000   0.00000
           D3           0.00000   0.00000   0.00000   0.00000   0.00000
           D4           0.00000   0.00000   0.00000   0.00000   0.00000
                          A1        A2        A3        A4        A5
           A1           0.16006
           A2           0.00006   0.16006
           A3          -0.00013  -0.00013   0.16026
           A4           0.00006   0.00006  -0.00013   0.16007
           A5           0.00006   0.00006  -0.00013   0.00006   0.16006
           A6          -0.00013  -0.00013   0.00026  -0.00013  -0.00013
           D1           0.00000   0.00000   0.00000   0.00000   0.00000
           D2           0.00000   0.00000   0.00000   0.00000   0.00000
           D3           0.00000   0.00000   0.00000   0.00000   0.00000
           D4           0.00000   0.00000   0.00000   0.00000   0.00000
                          A6        D1        D2        D3        D4
           A6           0.16026
           D1           0.00000   0.03087
           D2           0.00000   0.00000   0.03087
           D3           0.00000   0.00000   0.00000   0.03087
           D4           0.00000   0.00000   0.00000   0.00000   0.03087
 ITU=  1  1  0
 Use linear search instead of GDIIS.
     Eigenvalues ---    0.03087   0.03087   0.03087   0.16000   0.16000
     Eigenvalues ---    0.16000   0.16039   0.35131   0.35131   0.35131
     Eigenvalues ---    0.37675   0.62931
 RFO step:  Lambda=-1.25657826D-06 EMin= 3.08716499D-02
 Quartic linear search produced a step of  0.00978.
 Iteration  1 RMS(Cart)=  0.00051261 RMS(Int)=  0.00000022
 Iteration  2 RMS(Cart)=  0.00000023 RMS(Int)=  0.00000000
 Variable       Old X    -DE/DX   Delta X   Delta X   Delta X     New X
                                 (Linear)    (Quad)   (Total)
    R1        2.56124  -0.00049  -0.00012  -0.00072  -0.00084   2.56040
    R2        2.08992   0.00010  -0.00007   0.00036   0.00029   2.09020
    R3        2.08992   0.00010  -0.00007   0.00036   0.00029   2.09020
    R4        2.08992   0.00010  -0.00007   0.00036   0.00029   2.09020
    R5        2.08992   0.00010  -0.00007   0.00036   0.00029   2.09020
    A1        2.12667   0.00010  -0.00001   0.00063   0.00062   2.12729
    A2        2.12667   0.00010  -0.00001   0.00063   0.00062   2.12729
    A3        2.02985  -0.00020   0.00002  -0.00127  -0.00125   2.02860
    A4        2.12667   0.00010  -0.00001   0.00063   0.00062   2.12729
    A5        2.12667   0.00010  -0.00001   0.00063   0.00062   2.12729
    A6        2.02985  -0.00020   0.00002  -0.00127  -0.00125   2.02860
    D1        0.00000   0.00000   0.00000   0.00000   0.00000   0.00000
    D2        3.14159   0.00000   0.00000   0.00000   0.00000  -3.14159
    D3       -3.14159   0.00000   0.00000   0.00000   0.00000   3.14159
    D4        0.00000   0.00000   0.00000   0.00000   0.00000   0.00000
         Item               Value     Threshold  Converged?
 Maximum Force            0.000492     0.000450     NO 
 RMS     Force            0.000164     0.000300     YES
 Maximum Displacement     0.000946     0.001800     YES
 RMS     Displacement     0.000513     0.001200     YES
 Predicted change in Energy=-6.365862D-07
 GradGradGradGradGradGradGradGradGradGradGradGradGradGradGradGradGradGrad

                          Input orientation:                          
 ---------------------------------------------------------------------
 Center     Atomic      Atomic             Coordinates (Angstroms)
 Number     Number       Type             X           Y           Z
 ---------------------------------------------------------------------
      1          6           0       -0.759561   -1.176345    1.563173
      2          6           0        0.462764   -0.837955    1.086543
      3          1           0       -0.882390   -1.863698    2.421014
      4          1           0       -1.690894   -0.780827    1.116390
      5          1           0        1.394098   -1.233472    1.533327
      6          1           0        0.585593   -0.150602    0.228703
 ---------------------------------------------------------------------
                    Distance matrix (angstroms):
                    1          2          3          4          5
     1  C    0.000000
     2  C    1.354903   0.000000
     3  H    1.106088   2.154623   0.000000
     4  H    1.106088   2.154623   1.878385   0.000000
     5  H    2.154623   1.106088   2.523404   3.145775   0.000000
     6  H    2.154623   1.106088   3.145775   2.523404   1.878385
                    6
     6  H    0.000000
 Stoichiometry    C2H4
 Framework group  C1[X(C2H4)]
 Deg. of freedom    12
 Full point group                 C1      NOp   1
 Largest Abelian subgroup         C1      NOp   1
 Largest concise Abelian subgroup C1      NOp   1
                         Standard orientation:                         
 ---------------------------------------------------------------------
 Center     Atomic      Atomic             Coordinates (Angstroms)
 Number     Number       Type             X           Y           Z
 ---------------------------------------------------------------------
      1          6           0        0.677452    0.000000    0.000000
      2          6           0       -0.677452    0.000000    0.000000
      3          1           0        1.261702   -0.939193    0.000000
      4          1           0        1.261702    0.939193    0.000000
      5          1           0       -1.261702   -0.939193    0.000000
      6          1           0       -1.261702    0.939193    0.000000
 ---------------------------------------------------------------------
 Rotational constants (GHZ):    142.1224495     28.9915053     24.0795308
 Standard basis: STO-3G (5D, 7F)
 There are    14 symmetry adapted cartesian basis functions of A   symmetry.
 There are    14 symmetry adapted basis functions of A   symmetry.
    14 basis functions,    42 primitive gaussians,    14 cartesian basis functions
     8 alpha electrons        8 beta electrons
       nuclear repulsion energy        32.7561699361 Hartrees.
 NAtoms=    6 NActive=    6 NUniq=    6 SFac= 1.00D+00 NAtFMM=   60 NAOKFM=F Big=F
 Integral buffers will be    131072 words long.
 Raffenetti 1 integral format.
 Two-electron integral symmetry is turned on.
 One-electron integrals computed using PRISM.
 NBasis=    14 RedAO= T EigKep=  2.03D-01  NBF=    14
 NBsUse=    14 1.00D-06 EigRej= -1.00D+00 NBFU=    14
 Initial guess from the checkpoint file:  "/scr/Gau-25148.chk"
 B after Tr=     0.000000    0.000000    0.000000
         Rot=    1.000000    0.000000    0.000000    0.000000 Ang=   0.00 deg.
 Keep R1 ints in memory in canonical form, NReq=831627.
 Requested convergence on RMS density matrix=1.00D-08 within 128 cycles.
 Requested convergence on MAX density matrix=1.00D-06.
 Requested convergence on             energy=1.00D-06.
 No special actions if energy rises.
 SCF Done:  E(RHF) =  -77.0684285088     A.U. after    5 cycles
            NFock=  5  Conv=0.26D-08     -V/T= 2.0078
 ExpMin= 1.69D-01 ExpMax= 7.16D+01 ExpMxC= 7.16D+01 IAcc=3 IRadAn=         5 AccDes= 0.00D+00
 HarFok:  IExCor=  205 AccDes= 0.00D+00 IRadAn=         5 IDoV=-2 UseB2=F ITyADJ=14
 ICtDFT= 12500011 ScaDFX=  1.000000  1.000000  1.000000  1.000000
 Range of M.O.s used for correlation:     3    14
 NBasis=    14 NAE=     8 NBE=     8 NFC=     2 NFV=     0
 NROrb=     12 NOA=     6 NOB=     6 NVA=     6 NVB=     6
 Semi-Direct transformation.
 ModeAB=           2 MOrb=             6 LenV=      33443123
 LASXX=         2721 LTotXX=        2721 LenRXX=        2721
 LTotAB=        3690 MaxLAS=        7560 LenRXY=        7560
 NonZer=        8424 LenScr=      785920 LnRSAI=           0
 LnScr1=           0 LExtra=           0 Total=       796201
 MaxDsk=          -1 SrtSym=           F ITran=            4
 JobTyp=0 Pass  1:  I=   1 to   6.
 (rs|ai) integrals will be sorted in core.
 SymMOI:  orbitals are not symmetric.
 Spin components of T(2) and E(2):
     alpha-alpha T2 =       0.3576323694D-02 E2=     -0.8247544248D-02
     alpha-beta  T2 =       0.5346101150D-01 E2=     -0.1101979988D+00
     beta-beta   T2 =       0.3576323694D-02 E2=     -0.8247544248D-02
 ANorm=    0.1029860990D+01
 E2 =    -0.1266930873D+00 EUMP2 =    -0.77195121596122D+02
 Keep R2 and R3 ints in memory in canonical form, NReq=812344.
 Iterations=  50 Convergence= 0.100D-07
 Iteration Nr.   1
 **********************
 DD1Dir will call FoFMem   1 times, MxPair=        42
 NAB=    21 NAA=     0 NBB=     0.
 MP4(R+Q)=  0.14353859D-02
 E3=       -0.25299557D-01        EUMP3=      -0.77220421154D+02
 E4(DQ)=   -0.85993129D-02        UMP4(DQ)=   -0.77229020467D+02
 E4(SDQ)=  -0.86708177D-02        UMP4(SDQ)=  -0.77229091971D+02
 DE(Corr)= -0.15055723     E(Corr)=     -77.218985743    
 NORM(A)=   0.10478753D+01
 Iteration Nr.   2
 **********************
 DD1Dir will call FoFMem   1 times, MxPair=        42
 NAB=    21 NAA=     0 NBB=     0.
 DE(Corr)= -0.16110485     E(CORR)=     -77.229533360     Delta=-1.05D-02
 NORM(A)=   0.10572649D+01
 Iteration Nr.   3
 **********************
 DD1Dir will call FoFMem   1 times, MxPair=        42
 NAB=    21 NAA=     0 NBB=     0.
 DE(Corr)= -0.16574587     E(CORR)=     -77.234174379     Delta=-4.64D-03
 NORM(A)=   0.10593372D+01
 Iteration Nr.   4
 **********************
 DD1Dir will call FoFMem   1 times, MxPair=        42
 NAB=    21 NAA=     0 NBB=     0.
 DE(Corr)= -0.16655416     E(CORR)=     -77.234982673     Delta=-8.08D-04
 NORM(A)=   0.10596949D+01
 Iteration Nr.   5
 **********************
 DD1Dir will call FoFMem   1 times, MxPair=        42
 NAB=    21 NAA=     0 NBB=     0.
 DE(Corr)= -0.16663201     E(CORR)=     -77.235060519     Delta=-7.78D-05
 NORM(A)=   0.10597055D+01
 Iteration Nr.   6
 **********************
 DD1Dir will call FoFMem   1 times, MxPair=        42
 NAB=    21 NAA=     0 NBB=     0.
 DE(Corr)= -0.16663041     E(CORR)=     -77.235058918     Delta= 1.60D-06
 NORM(A)=   0.10597069D+01
 Iteration Nr.   7
 **********************
 DD1Dir will call FoFMem   1 times, MxPair=        42
 NAB=    21 NAA=     0 NBB=     0.
 DE(Corr)= -0.16663060     E(CORR)=     -77.235059112     Delta=-1.94D-07
 NORM(A)=   0.10597072D+01
 Iteration Nr.   8
 **********************
 DD1Dir will call FoFMem   1 times, MxPair=        42
 NAB=    21 NAA=     0 NBB=     0.
 DE(Corr)= -0.16663070     E(CORR)=     -77.235059211     Delta=-9.92D-08
 NORM(A)=   0.10597070D+01
 Iteration Nr.   9
 **********************
 DD1Dir will call FoFMem   1 times, MxPair=        42
 NAB=    21 NAA=     0 NBB=     0.
 DE(Corr)= -0.16663068     E(CORR)=     -77.235059185     Delta= 2.64D-08
 NORM(A)=   0.10597070D+01
 Iteration Nr.  10
 **********************
 DD1Dir will call FoFMem   1 times, MxPair=        42
 NAB=    21 NAA=     0 NBB=     0.
 DE(Corr)= -0.16663068     E(CORR)=     -77.235059191     Delta=-6.52D-09
 NORM(A)=   0.10597070D+01
 Iteration Nr.  11
 **********************
 DD1Dir will call FoFMem   1 times, MxPair=        42
 NAB=    21 NAA=     0 NBB=     0.
 DE(Corr)= -0.16663068     E(CORR)=     -77.235059193     Delta=-1.31D-09
 NORM(A)=   0.10597070D+01
 Dominant configurations:
 ***********************
 Spin Case        I    J    A    B          Value
   ABAB           8    8    9    9      -0.231032D+00
 Largest amplitude= 2.31D-01

 Z-AMPLITUDE ITERATIONS

 Iteration Nr.   1
 **********************
 DD1Dir will call FoFMem   1 times, MxPair=        42
 NAB=    21 NAA=     0 NBB=     0.
 DE(Z)  -0.16214027D+00          E(Z)=    -0.77230568776D+02
 NORM(A)=   0.10597072D+01
 Iteration Nr.   2
 **********************
 DD1Dir will call FoFMem   1 times, MxPair=        42
 NAB=    21 NAA=     0 NBB=     0.
 DE(Z)  -0.16214033D+00          E(Z)=    -0.77230568840D+02
 NORM(A)=   0.10597076D+01
 Iteration Nr.   3
 **********************
 DD1Dir will call FoFMem   1 times, MxPair=        42
 NAB=    21 NAA=     0 NBB=     0.
 DE(Z)  -0.16214041D+00          E(Z)=    -0.77230568916D+02
 NORM(A)=   0.10597080D+01
 Iteration Nr.   4
 **********************
 DD1Dir will call FoFMem   1 times, MxPair=        42
 NAB=    21 NAA=     0 NBB=     0.
 DE(Z)  -0.16214048D+00          E(Z)=    -0.77230568992D+02
 NORM(A)=   0.10597296D+01
 Iteration Nr.   5
 **********************
 DD1Dir will call FoFMem   1 times, MxPair=        42
 NAB=    21 NAA=     0 NBB=     0.
 DE(Z)  -0.16214478D+00          E(Z)=    -0.77230573293D+02
 NORM(A)=   0.10552638D+01
 Iteration Nr.   6
 **********************
 DD1Dir will call FoFMem   1 times, MxPair=        42
 NAB=    21 NAA=     0 NBB=     0.
 DE(Z)  -0.16122578D+00          E(Z)=    -0.77229654290D+02
 NORM(A)=   0.10552643D+01
 Iteration Nr.   7
 **********************
 DD1Dir will call FoFMem   1 times, MxPair=        42
 NAB=    21 NAA=     0 NBB=     0.
 DE(Z)  -0.16122594D+00          E(Z)=    -0.77229654449D+02
 NORM(A)=   0.10552644D+01
 Iteration Nr.   8
 **********************
 DD1Dir will call FoFMem   1 times, MxPair=        42
 NAB=    21 NAA=     0 NBB=     0.
 DE(Z)  -0.16122600D+00          E(Z)=    -0.77229654511D+02
 NORM(A)=   0.10552645D+01
 Iteration Nr.   9
 **********************
 DD1Dir will call FoFMem   1 times, MxPair=        42
 NAB=    21 NAA=     0 NBB=     0.
 DE(Z)  -0.16122602D+00          E(Z)=    -0.77229654527D+02
 NORM(A)=   0.10552645D+01
 Iteration Nr.  10
 **********************
 DD1Dir will call FoFMem   1 times, MxPair=        42
 NAB=    21 NAA=     0 NBB=     0.
 DE(Z)  -0.16122602D+00          E(Z)=    -0.77229654533D+02
 NORM(A)=   0.10552645D+01
 Discarding MO integrals.
          IDoAtm=111111
          Differentiating once with respect to electric field.
                with respect to dipole field.
          Differentiating once with respect to nuclear coordinates.
 Keep R1 ints in memory in canonical form, NReq=814237.
          There are     1 degrees of freedom in the 1st order CPHF.  IDoFFX=0 NUNeed=     1.
 LinEq1:  Iter=  0 NonCon=     1 RMS=1.94D-03 Max=8.11D-03 NDo=     1
 AX will form     1 AO Fock derivatives at one time.
 LinEq1:  Iter=  1 NonCon=     1 RMS=1.88D-04 Max=9.96D-04 NDo=     1
 LinEq1:  Iter=  2 NonCon=     1 RMS=1.81D-05 Max=1.01D-04 NDo=     1
 LinEq1:  Iter=  3 NonCon=     1 RMS=5.99D-07 Max=2.36D-06 NDo=     1
 LinEq1:  Iter=  4 NonCon=     1 RMS=3.62D-08 Max=1.68D-07 NDo=     1
 LinEq1:  Iter=  5 NonCon=     1 RMS=3.26D-09 Max=1.35D-08 NDo=     1
 LinEq1:  Iter=  6 NonCon=     0 RMS=9.23D-11 Max=3.08D-10 NDo=     1
 Linear equations converged to 1.000D-10 1.000D-09 after     6 iterations.
 End of Minotr F.D. properties file   721 does not exist.
 End of Minotr F.D. properties file   722 does not exist.
 End of Minotr F.D. properties file   788 does not exist.
 Calling FoFJK, ICntrl=  10002127 FMM=F ISym2X=0 I1Cent= 0 IOpClX= 0 NMat=1 NMatS=1 NMatT=0.
 ***** Axes restored to original set *****
 -------------------------------------------------------------------
 Center     Atomic                   Forces (Hartrees/Bohr)
 Number     Number              X              Y              Z
 -------------------------------------------------------------------
      1        6           0.000070550    0.000019559   -0.000027472
      2        6          -0.000070504   -0.000019477    0.000027513
      3        1          -0.000036835    0.000004702   -0.000004137
      4        1          -0.000018398   -0.000020021    0.000025637
      5        1           0.000018367    0.000019971   -0.000025658
      6        1           0.000036821   -0.000004734    0.000004118
 -------------------------------------------------------------------
 Cartesian Forces:  Max     0.000070550 RMS     0.000031450

 GradGradGradGradGradGradGradGradGradGradGradGradGradGradGradGradGradGrad
 Berny optimization.
 Using GEDIIS/GDIIS optimizer.
 FormGI is forming the generalized inverse of G from B-inverse, IUseBI=4.
 Internal  Forces:  Max     0.000051993 RMS     0.000023679
 Search for a local minimum.
 Step number   4 out of a maximum of   25
 All quantities printed in internal units (Hartrees-Bohrs-Radians)
 Mixed Optimization -- En-DIIS/RFO-DIIS
 Swapping is turned off.
 Update second derivatives using D2CorX and points    1    2    3    4
 DE= -7.40D-07 DEPred=-6.37D-07 R= 1.16D+00
 Trust test= 1.16D+00 RLast= 2.39D-03 DXMaxT set to 3.59D-01
 The second derivative matrix:
                          R1        R2        R3        R4        R5
           R1           0.65308
           R2           0.00671   0.35979
           R3           0.00671   0.00849   0.35980
           R4           0.00670   0.00849   0.00849   0.35980
           R5           0.00670   0.00849   0.00849   0.00849   0.35979
           A1           0.00888   0.00025   0.00025   0.00026   0.00026
           A2           0.00888   0.00025   0.00025   0.00026   0.00026
           A3          -0.01776  -0.00051  -0.00051  -0.00051  -0.00051
           A4           0.00888   0.00025   0.00025   0.00026   0.00026
           A5           0.00888   0.00025   0.00025   0.00026   0.00026
           A6          -0.01775  -0.00051  -0.00051  -0.00051  -0.00051
           D1           0.00000   0.00000   0.00000   0.00000   0.00000
           D2          -0.00002   0.00000   0.00000   0.00000   0.00000
           D3           0.00002  -0.00001  -0.00001  -0.00001  -0.00001
           D4           0.00000   0.00000   0.00000   0.00000   0.00000
                          A1        A2        A3        A4        A5
           A1           0.15740
           A2          -0.00261   0.15739
           A3           0.00521   0.00521   0.14958
           A4          -0.00260  -0.00260   0.00521   0.15740
           A5          -0.00260  -0.00261   0.00521  -0.00260   0.15740
           A6           0.00521   0.00521  -0.01042   0.00520   0.00521
           D1           0.00000   0.00000   0.00000   0.00000   0.00000
           D2           0.00000   0.00000   0.00000   0.00000   0.00000
           D3           0.00000   0.00000   0.00000   0.00000   0.00000
           D4           0.00000   0.00000   0.00000   0.00000   0.00000
                          A6        D1        D2        D3        D4
           A6           0.14959
           D1           0.00000   0.03087
           D2           0.00000   0.00000   0.03087
           D3           0.00000   0.00000   0.00000   0.03087
           D4           0.00000   0.00000   0.00000   0.00000   0.03087
 ITU=  0  1  1  0
     Eigenvalues ---    0.03087   0.03087   0.03087   0.12695   0.16000
     Eigenvalues ---    0.16000   0.16000   0.35131   0.35131   0.35131
     Eigenvalues ---    0.38458   0.65556
 En-DIIS/RFO-DIIS IScMMF=        0 using points:     4    3
 RFO step:  Lambda=-2.33713018D-08.
 DidBck=F Rises=F RFO-DIIS coefs:    1.19315   -0.19315
 Iteration  1 RMS(Cart)=  0.00020992 RMS(Int)=  0.00000002
 Iteration  2 RMS(Cart)=  0.00000002 RMS(Int)=  0.00000000
 Variable       Old X    -DE/DX   Delta X   Delta X   Delta X     New X
                                 (Linear)    (Quad)   (Total)
    R1        2.56040  -0.00002  -0.00016   0.00010  -0.00006   2.56034
    R2        2.09020   0.00000   0.00006  -0.00006  -0.00001   2.09020
    R3        2.09020   0.00000   0.00006  -0.00006  -0.00001   2.09020
    R4        2.09020   0.00000   0.00006  -0.00006  -0.00001   2.09020
    R5        2.09020   0.00000   0.00006  -0.00006  -0.00001   2.09020
    A1        2.12729   0.00003   0.00012   0.00009   0.00021   2.12750
    A2        2.12729   0.00003   0.00012   0.00009   0.00021   2.12750
    A3        2.02860  -0.00005  -0.00024  -0.00017  -0.00041   2.02819
    A4        2.12729   0.00003   0.00012   0.00009   0.00021   2.12750
    A5        2.12729   0.00003   0.00012   0.00009   0.00021   2.12750
    A6        2.02860  -0.00005  -0.00024  -0.00017  -0.00041   2.02819
    D1        0.00000   0.00000   0.00000   0.00000   0.00000   0.00000
    D2       -3.14159   0.00000   0.00000   0.00000   0.00000   3.14159
    D3        3.14159   0.00000   0.00000   0.00000   0.00000  -3.14159
    D4        0.00000   0.00000   0.00000   0.00000   0.00000   0.00000
         Item               Value     Threshold  Converged?
 Maximum Force            0.000052     0.000450     YES
 RMS     Force            0.000024     0.000300     YES
 Maximum Displacement     0.000400     0.001800     YES
 RMS     Displacement     0.000210     0.001200     YES
 Predicted change in Energy=-3.265133D-08
 Optimization completed.
    -- Stationary point found.
                           ----------------------------
                           !   Optimized Parameters   !
                           ! (Angstroms and Degrees)  !
 --------------------------                            --------------------------
 ! Name  Definition              Value          Derivative Info.                !
 --------------------------------------------------------------------------------
 ! R1    R(1,2)                  1.3549         -DE/DX =    0.0                 !
 ! R2    R(1,3)                  1.1061         -DE/DX =    0.0                 !
 ! R3    R(1,4)                  1.1061         -DE/DX =    0.0                 !
 ! R4    R(2,5)                  1.1061         -DE/DX =    0.0                 !
 ! R5    R(2,6)                  1.1061         -DE/DX =    0.0                 !
 ! A1    A(2,1,3)              121.8848         -DE/DX =    0.0                 !
 ! A2    A(2,1,4)              121.8848         -DE/DX =    0.0                 !
 ! A3    A(3,1,4)              116.2304         -DE/DX =   -0.0001              !
 ! A4    A(1,2,5)              121.8848         -DE/DX =    0.0                 !
 ! A5    A(1,2,6)              121.8848         -DE/DX =    0.0                 !
 ! A6    A(5,2,6)              116.2304         -DE/DX =   -0.0001              !
 ! D1    D(3,1,2,5)              0.0            -DE/DX =    0.0                 !
 ! D2    D(3,1,2,6)            180.0            -DE/DX =    0.0                 !
 ! D3    D(4,1,2,5)           -180.0001         -DE/DX =    0.0                 !
 ! D4    D(4,1,2,6)              0.0            -DE/DX =    0.0                 !
 --------------------------------------------------------------------------------
 GradGradGradGradGradGradGradGradGradGradGradGradGradGradGradGradGradGrad

                          Input orientation:                          
 ---------------------------------------------------------------------
 Center     Atomic      Atomic             Coordinates (Angstroms)
 Number     Number       Type             X           Y           Z
 ---------------------------------------------------------------------
      1          6           0       -0.759561   -1.176345    1.563173
      2          6           0        0.462764   -0.837955    1.086543
      3          1           0       -0.882390   -1.863698    2.421014
      4          1           0       -1.690894   -0.780827    1.116390
      5          1           0        1.394098   -1.233472    1.533327
      6          1           0        0.585593   -0.150602    0.228703
 ---------------------------------------------------------------------
                    Distance matrix (angstroms):
                    1          2          3          4          5
     1  C    0.000000
     2  C    1.354903   0.000000
     3  H    1.106088   2.154623   0.000000
     4  H    1.106088   2.154623   1.878385   0.000000
     5  H    2.154623   1.106088   2.523404   3.145775   0.000000
     6  H    2.154623   1.106088   3.145775   2.523404   1.878385
                    6
     6  H    0.000000
 Stoichiometry    C2H4
 Framework group  C1[X(C2H4)]
 Deg. of freedom    12
 Full point group                 C1      NOp   1
 Largest Abelian subgroup         C1      NOp   1
 Largest concise Abelian subgroup C1      NOp   1
                         Standard orientation:                         
 ---------------------------------------------------------------------
 Center     Atomic      Atomic             Coordinates (Angstroms)
 Number     Number       Type             X           Y           Z
 ---------------------------------------------------------------------
      1          6           0        0.677452    0.000000    0.000000
      2          6           0       -0.677452    0.000000    0.000000
      3          1           0        1.261702   -0.939193    0.000000
      4          1           0        1.261702    0.939193    0.000000
      5          1           0       -1.261702   -0.939193    0.000000
      6          1           0       -1.261702    0.939193    0.000000
 ---------------------------------------------------------------------
 Rotational constants (GHZ):    142.1224495     28.9915053     24.0795308

 **********************************************************************

            Population analysis using the SCF density.

 **********************************************************************

 Orbital symmetries:
       Occupied  (A) (A) (A) (A) (A) (A) (A) (A)
       Virtual   (A) (A) (A) (A) (A) (A)
 The electronic state is 1-A.
 Alpha  occ. eigenvalues --  -11.01994 -11.01929  -0.96572  -0.73723  -0.58867
 Alpha  occ. eigenvalues --   -0.52358  -0.45513  -0.31646
 Alpha virt. eigenvalues --    0.31363   0.61038   0.66445   0.67174   0.90826
 Alpha virt. eigenvalues --    0.96054
          Condensed to atoms (all electrons):
               1          2          3          4          5          6
     1  C    4.798500   0.592910   0.386799   0.386799  -0.023920  -0.023920
     2  C    0.592910   4.798500  -0.023920  -0.023920   0.386799   0.386799
     3  H    0.386799  -0.023920   0.604167  -0.023400  -0.003931   0.001699
     4  H    0.386799  -0.023920  -0.023400   0.604167   0.001699  -0.003931
     5  H   -0.023920   0.386799  -0.003931   0.001699   0.604167  -0.023400
     6  H   -0.023920   0.386799   0.001699  -0.003931  -0.023400   0.604167
 Mulliken charges:
               1
     1  C   -0.117169
     2  C   -0.117169
     3  H    0.058585
     4  H    0.058585
     5  H    0.058585
     6  H    0.058585
 Sum of Mulliken charges =   0.00000
 Mulliken charges with hydrogens summed into heavy atoms:
               1
     1  C    0.000000
     2  C    0.000000
 Electronic spatial extent (au):  <R**2>=             82.6679
 Charge=              0.0000 electrons
 Dipole moment (field-independent basis, Debye):
    X=              0.0000    Y=              0.0000    Z=              0.0000  Tot=              0.0000
 Quadrupole moment (field-independent basis, Debye-Ang):
   XX=            -11.8835   YY=            -11.8076   ZZ=            -13.5153
   XY=              0.0000   XZ=              0.0000   YZ=              0.0000
 Traceless Quadrupole moment (field-independent basis, Debye-Ang):
   XX=              0.5186   YY=              0.5945   ZZ=             -1.1132
   XY=              0.0000   XZ=              0.0000   YZ=              0.0000
 Octapole moment (field-independent basis, Debye-Ang**2):
  XXX=              0.0000  YYY=              0.0000  ZZZ=              0.0000  XYY=              0.0000
  XXY=              0.0000  XXZ=              0.0000  XZZ=              0.0000  YZZ=              0.0000
  YYZ=              0.0000  XYZ=              0.0000
 Hexadecapole moment (field-independent basis, Debye-Ang**3):
 XXXX=            -65.5947 YYYY=            -24.4639 ZZZZ=            -10.9375 XXXY=              0.0000
 XXXZ=              0.0000 YYYX=              0.0000 YYYZ=              0.0000 ZZZX=              0.0000
 ZZZY=              0.0000 XXYY=            -12.6309 XXZZ=            -13.3174 YYZZ=             -6.4402
 XXYZ=              0.0000 YYXZ=              0.0000 ZZXY=              0.0000
 N-N= 3.275616993611D+01 E-N=-2.448670775508D+02  KE= 7.646992927670D+01
 1\1\GINC-N0298\FOpt\RCCSD-FC\STO-3G\C2H4\TAIYUPAN\24-Feb-2017\0\\#n CC
 SD/STO-3G Opt\\Title\\0,1\C,-0.7595608909,-1.1763451794,1.5631731525\C
 ,0.462764157,-0.8379552531,1.0865432566\H,-0.8823899357,-1.8636981507,
 2.4210137101\H,-1.6908942557,-0.7808271788,1.1163900801\H,1.3940977166
 ,-1.2334724684,1.533326684\H,0.5855932027,-0.1506017617,0.228703107\\V
 ersion=ES64L-G09RevE.01\State=1-A\HF=-77.0684285\MP2=-77.1951216\MP3=-
 77.2204212\MP4D=-77.2304559\MP4DQ=-77.2290205\MP4SDQ=-77.229092\CCSD=-
 77.2350592\RMSD=2.632e-09\RMSF=3.145e-05\Dipole=0.,0.0000001,0.0000001
 \PG=C01 [X(C2H4)]\\@


 A COMPUTER IS LIKE A HORSE, IT WILL SENSE WEAKNESS.
     -- GREG WETTSTEIN
 Job cpu time:       0 days  0 hours  0 minutes 48.2 seconds.
 File lengths (MBytes):  RWF=     12 Int=      0 D2E=      0 Chk=      1 Scr=      1
 Normal termination of Gaussian 09 at Fri Feb 24 00:14:04 2017.
