 Entering Gaussian System, Link 0=g09
 Input=CH3_C_S.com
 Output=CH3_C_S.log
 Initial command:
 /sw/contrib/gaussian/g09/E01/g09/l1.exe "/scr/Gau-24134.inp" -scrdir="/scr/"
 Entering Link 1 = /sw/contrib/gaussian/g09/E01/g09/l1.exe PID=     24135.
  
 Copyright (c) 1988,1990,1992,1993,1995,1998,2003,2009,2015,
            Gaussian, Inc.  All Rights Reserved.
  
 This is part of the Gaussian(R) 09 program.  It is based on
 the Gaussian(R) 03 system (copyright 2003, Gaussian, Inc.),
 the Gaussian(R) 98 system (copyright 1998, Gaussian, Inc.),
 the Gaussian(R) 94 system (copyright 1995, Gaussian, Inc.),
 the Gaussian 92(TM) system (copyright 1992, Gaussian, Inc.),
 the Gaussian 90(TM) system (copyright 1990, Gaussian, Inc.),
 the Gaussian 88(TM) system (copyright 1988, Gaussian, Inc.),
 the Gaussian 86(TM) system (copyright 1986, Carnegie Mellon
 University), and the Gaussian 82(TM) system (copyright 1983,
 Carnegie Mellon University). Gaussian is a federally registered
 trademark of Gaussian, Inc.
  
 This software contains proprietary and confidential information,
 including trade secrets, belonging to Gaussian, Inc.
  
 This software is provided under written license and may be
 used, copied, transmitted, or stored only in accord with that
 written license.
  
 The following legend is applicable only to US Government
 contracts under FAR:
  
                    RESTRICTED RIGHTS LEGEND
  
 Use, reproduction and disclosure by the US Government is
 subject to restrictions as set forth in subparagraphs (a)
 and (c) of the Commercial Computer Software - Restricted
 Rights clause in FAR 52.227-19.
  
 Gaussian, Inc.
 340 Quinnipiac St., Bldg. 40, Wallingford CT 06492
  
  
 ---------------------------------------------------------------
 Warning -- This program may not be used in any manner that
 competes with the business of Gaussian, Inc. or will provide
 assistance to any competitor of Gaussian, Inc.  The licensee
 of this program is prohibited from giving any competitor of
 Gaussian, Inc. access to this program.  By using this program,
 the user acknowledges that Gaussian, Inc. is engaged in the
 business of creating and licensing software in the field of
 computational chemistry and represents and warrants to the
 licensee that it is not a competitor of Gaussian, Inc. and that
 it will not use this program in any manner prohibited above.
 ---------------------------------------------------------------
  

 Cite this work as:
 Gaussian 09, Revision E.01,
 M. J. Frisch, G. W. Trucks, H. B. Schlegel, G. E. Scuseria, 
 M. A. Robb, J. R. Cheeseman, G. Scalmani, V. Barone, B. Mennucci, 
 G. A. Petersson, H. Nakatsuji, M. Caricato, X. Li, H. P. Hratchian, 
 A. F. Izmaylov, J. Bloino, G. Zheng, J. L. Sonnenberg, M. Hada, 
 M. Ehara, K. Toyota, R. Fukuda, J. Hasegawa, M. Ishida, T. Nakajima, 
 Y. Honda, O. Kitao, H. Nakai, T. Vreven, J. A. Montgomery, Jr., 
 J. E. Peralta, F. Ogliaro, M. Bearpark, J. J. Heyd, E. Brothers, 
 K. N. Kudin, V. N. Staroverov, T. Keith, R. Kobayashi, J. Normand, 
 K. Raghavachari, A. Rendell, J. C. Burant, S. S. Iyengar, J. Tomasi, 
 M. Cossi, N. Rega, J. M. Millam, M. Klene, J. E. Knox, J. B. Cross, 
 V. Bakken, C. Adamo, J. Jaramillo, R. Gomperts, R. E. Stratmann, 
 O. Yazyev, A. J. Austin, R. Cammi, C. Pomelli, J. W. Ochterski, 
 R. L. Martin, K. Morokuma, V. G. Zakrzewski, G. A. Voth, 
 P. Salvador, J. J. Dannenberg, S. Dapprich, A. D. Daniels, 
 O. Farkas, J. B. Foresman, J. V. Ortiz, J. Cioslowski, 
 and D. J. Fox, Gaussian, Inc., Wallingford CT, 2013.
 
 ******************************************
 Gaussian 09:  ES64L-G09RevE.01 30-Nov-2015
                23-Feb-2017 
 ******************************************
 %NProcShared=8
 Will use up to    8 processors via shared memory.
 ------------------
 #n CCSD/STO-3G Opt
 ------------------
 1/18=20,19=15,38=1/1,3;
 2/9=110,12=2,17=6,18=5,40=1/2;
 3/6=3,11=9,16=1,25=1,30=1,71=1/1,2,3;
 4//1;
 5/5=2,38=5/2;
 8/6=4,9=120000,10=1/1,4;
 9/5=7,15=1/13;
 11/28=-8,29=200,42=3/11;
 10/5=6/2;
 6/7=2,8=2,9=2,10=2/1;
 7/12=7/1,2,3,16;
 1/18=20,19=15/3(2);
 2/9=110/2;
 99//99;
 2/9=110/2;
 3/6=3,11=9,16=1,25=1,30=1,71=1/1,2,3;
 4/5=5,16=3,69=1/1;
 5/5=2,38=5/2;
 8/6=4,9=120000,10=1/1,4;
 9/5=7,15=1/13;
 11/28=-8,29=200,42=3/11;
 10/5=6/2;
 7/12=7/1,2,3,16;
 1/18=20,19=15/3(-9);
 2/9=110/2;
 6/7=2,8=2,9=2,10=2/1;
 99//99;
 ---------------
 CH3_CCSD/STO-3G
 ---------------
 Symbolic Z-matrix:
 Charge =  0 Multiplicity = 1
 C                    -1.76985   1.60508   0. 
 C                    -0.94833   0.30637   0. 
 H                    -2.70278   1.46556   0.5507 
 H                    -2.01181   1.90264  -1.02275 
 H                    -1.2057    2.41255   0.47205 
 H                    -1.51248  -0.5011   -0.47205 
 H                    -0.70637   0.00881   1.02275 
 H                    -0.0154    0.44589  -0.5507 
 

 GradGradGradGradGradGradGradGradGradGradGradGradGradGradGradGradGradGrad
 Berny optimization.
 Initialization pass.
                           ----------------------------
                           !    Initial Parameters    !
                           ! (Angstroms and Degrees)  !
 --------------------------                            --------------------------
 ! Name  Definition              Value          Derivative Info.                !
 --------------------------------------------------------------------------------
 ! R1    R(1,2)                  1.5367         estimate D2E/DX2                !
 ! R2    R(1,3)                  1.0923         estimate D2E/DX2                !
 ! R3    R(1,4)                  1.0923         estimate D2E/DX2                !
 ! R4    R(1,5)                  1.0923         estimate D2E/DX2                !
 ! R5    R(2,6)                  1.0923         estimate D2E/DX2                !
 ! R6    R(2,7)                  1.0923         estimate D2E/DX2                !
 ! R7    R(2,8)                  1.0923         estimate D2E/DX2                !
 ! A1    A(2,1,3)              110.4046         estimate D2E/DX2                !
 ! A2    A(2,1,4)              110.4044         estimate D2E/DX2                !
 ! A3    A(2,1,5)              110.404          estimate D2E/DX2                !
 ! A4    A(3,1,4)              108.5221         estimate D2E/DX2                !
 ! A5    A(3,1,5)              108.5221         estimate D2E/DX2                !
 ! A6    A(4,1,5)              108.5224         estimate D2E/DX2                !
 ! A7    A(1,2,6)              110.404          estimate D2E/DX2                !
 ! A8    A(1,2,7)              110.4044         estimate D2E/DX2                !
 ! A9    A(1,2,8)              110.4046         estimate D2E/DX2                !
 ! A10   A(6,2,7)              108.5224         estimate D2E/DX2                !
 ! A11   A(6,2,8)              108.5221         estimate D2E/DX2                !
 ! A12   A(7,2,8)              108.5221         estimate D2E/DX2                !
 ! D1    D(3,1,2,6)             60.0001         estimate D2E/DX2                !
 ! D2    D(3,1,2,7)            -59.9999         estimate D2E/DX2                !
 ! D3    D(3,1,2,8)            180.0            estimate D2E/DX2                !
 ! D4    D(4,1,2,6)            -59.9999         estimate D2E/DX2                !
 ! D5    D(4,1,2,7)            180.0            estimate D2E/DX2                !
 ! D6    D(4,1,2,8)             59.9999         estimate D2E/DX2                !
 ! D7    D(5,1,2,6)           -180.0            estimate D2E/DX2                !
 ! D8    D(5,1,2,7)             59.9999         estimate D2E/DX2                !
 ! D9    D(5,1,2,8)            -60.0001         estimate D2E/DX2                !
 --------------------------------------------------------------------------------
 Trust Radius=3.00D-01 FncErr=1.00D-07 GrdErr=1.00D-07
 Number of steps in this run=     38 maximum allowed number of steps=    100.
 GradGradGradGradGradGradGradGradGradGradGradGradGradGradGradGradGradGrad

                          Input orientation:                          
 ---------------------------------------------------------------------
 Center     Atomic      Atomic             Coordinates (Angstroms)
 Number     Number       Type             X           Y           Z
 ---------------------------------------------------------------------
      1          6           0       -1.769850    1.605080    0.000000
      2          6           0       -0.948330    0.306370    0.000000
      3          1           0       -2.702780    1.465560    0.550700
      4          1           0       -2.011810    1.902640   -1.022750
      5          1           0       -1.205700    2.412550    0.472050
      6          1           0       -1.512480   -0.501100   -0.472050
      7          1           0       -0.706370    0.008810    1.022750
      8          1           0       -0.015400    0.445890   -0.550700
 ---------------------------------------------------------------------
                    Distance matrix (angstroms):
                    1          2          3          4          5
     1  C    0.000000
     2  C    1.536731   0.000000
     3  H    1.092289   2.173726   0.000000
     4  H    1.092293   2.173726   1.773196   0.000000
     5  H    1.092293   2.173721   1.773196   1.773203   0.000000
     6  H    2.173721   1.092293   2.516065   2.516062   3.078116
     7  H    2.173726   1.092293   2.516069   3.078122   2.516062
     8  H    2.173726   1.092289   3.078120   2.516069   2.516065
                    6          7          8
     6  H    0.000000
     7  H    1.773203   0.000000
     8  H    1.773196   1.773196   0.000000
 This structure is nearly, but not quite of a higher symmetry.
 Consider Symm=Loose if the higher symmetry is desired.
 Stoichiometry    C2H6
 Framework group  CI[X(C2H6)]
 Deg. of freedom     9
 Full point group                 CI      NOp   2
 Largest Abelian subgroup         CI      NOp   2
 Largest concise Abelian subgroup CI      NOp   2
                         Standard orientation:                         
 ---------------------------------------------------------------------
 Center     Atomic      Atomic             Coordinates (Angstroms)
 Number     Number       Type             X           Y           Z
 ---------------------------------------------------------------------
      1          6           0       -0.410760    0.649355    0.000000
      2          6           0        0.410760   -0.649355    0.000000
      3          1           0       -1.343690    0.509835    0.550700
      4          1           0       -0.652720    0.946915   -1.022750
      5          1           0        0.153390    1.456825    0.472050
      6          1           0       -0.153390   -1.456825   -0.472050
      7          1           0        0.652720   -0.946915    1.022750
      8          1           0        1.343690   -0.509835   -0.550700
 ---------------------------------------------------------------------
 Rotational constants (GHZ):     79.7420612     19.9566490     19.9566228
 Standard basis: STO-3G (5D, 7F)
 There are     8 symmetry adapted cartesian basis functions of AG  symmetry.
 There are     8 symmetry adapted cartesian basis functions of AU  symmetry.
 There are     8 symmetry adapted basis functions of AG  symmetry.
 There are     8 symmetry adapted basis functions of AU  symmetry.
    16 basis functions,    48 primitive gaussians,    16 cartesian basis functions
     9 alpha electrons        9 beta electrons
       nuclear repulsion energy        42.1696170358 Hartrees.
 NAtoms=    8 NActive=    8 NUniq=    4 SFac= 4.00D+00 NAtFMM=   60 NAOKFM=F Big=F
 Integral buffers will be    131072 words long.
 Raffenetti 1 integral format.
 Two-electron integral symmetry is turned on.
 One-electron integrals computed using PRISM.
 NBasis=    16 RedAO= T EigKep=  1.47D-01  NBF=     8     8
 NBsUse=    16 1.00D-06 EigRej= -1.00D+00 NBFU=     8     8
 ExpMin= 1.69D-01 ExpMax= 7.16D+01 ExpMxC= 7.16D+01 IAcc=1 IRadAn=         1 AccDes= 0.00D+00
 Harris functional with IExCor=  205 and IRadAn=       1 diagonalized for initial guess.
 HarFok:  IExCor=  205 AccDes= 0.00D+00 IRadAn=         1 IDoV= 1 UseB2=F ITyADJ=14
 ICtDFT=  3500011 ScaDFX=  1.000000  1.000000  1.000000  1.000000
 FoFCou: FMM=F IPFlag=           0 FMFlag=      100000 FMFlg1=           0
         NFxFlg=           0 DoJE=T BraDBF=F KetDBF=T FulRan=T
         wScrn=  0.000000 ICntrl=     500 IOpCl=  0 I1Cent=   200000004 NGrid=           0
         NMat0=    1 NMatS0=      1 NMatT0=    0 NMatD0=    1 NMtDS0=    0 NMtDT0=    0
 Petite list used in FoFCou.
 Initial guess orbital symmetries:
       Occupied  (AU) (AG) (AG) (AU) (AU) (AU) (AG) (AG) (AG)
       Virtual   (AU) (AU) (AU) (AG) (AG) (AG) (AU)
 The electronic state of the initial guess is 1-AG.
 Keep R1 ints in memory in symmetry-blocked form, NReq=838434.
 Requested convergence on RMS density matrix=1.00D-08 within 128 cycles.
 Requested convergence on MAX density matrix=1.00D-06.
 Requested convergence on             energy=1.00D-06.
 No special actions if energy rises.
 SCF Done:  E(RHF) =  -78.3059324034     A.U. after    7 cycles
            NFock=  7  Conv=0.66D-08     -V/T= 2.0085
 ExpMin= 1.69D-01 ExpMax= 7.16D+01 ExpMxC= 7.16D+01 IAcc=3 IRadAn=         5 AccDes= 0.00D+00
 HarFok:  IExCor=  205 AccDes= 0.00D+00 IRadAn=         5 IDoV=-2 UseB2=F ITyADJ=14
 ICtDFT= 12500011 ScaDFX=  1.000000  1.000000  1.000000  1.000000
 Range of M.O.s used for correlation:     3    16
 NBasis=    16 NAE=     9 NBE=     9 NFC=     2 NFV=     0
 NROrb=     14 NOA=     7 NOB=     7 NVA=     7 NVB=     7
 Semi-Direct transformation.
 ModeAB=           4 MOrb=             7 LenV=      33439920
 LASXX=         2581 LTotXX=        2581 LenRXX=        5950
 LTotAB=        3369 MaxLAS=        8232 LenRXY=           0
 NonZer=        8531 LenScr=      785920 LnRSAI=        8232
 LnScr1=      785920 LExtra=           0 Total=      1586022
 MaxDsk=          -1 SrtSym=           T ITran=            4
 JobTyp=0 Pass  1:  I=   1 to   7.
 (rs|ai) integrals will be sorted in core.
 Spin components of T(2) and E(2):
     alpha-alpha T2 =       0.1556316503D-02 E2=     -0.4157116153D-02
     alpha-beta  T2 =       0.3781043066D-01 E2=     -0.9823638547D-01
     beta-beta   T2 =       0.1556316503D-02 E2=     -0.4157116153D-02
 ANorm=    0.1020256372D+01
 E2 =    -0.1065506178D+00 EUMP2 =    -0.78412483021170D+02
 Keep R2 and R3 ints in memory in symmetry-blocked form, NReq=811030.
 Iterations=  50 Convergence= 0.100D-07
 Iteration Nr.   1
 **********************
 DD1Dir will call FoFMem   1 times, MxPair=        56
 NAB=    28 NAA=     0 NBB=     0.
 MP4(R+Q)=  0.53941778D-03
 E3=       -0.26561924D-01        EUMP3=      -0.78439044945D+02
 E4(DQ)=   -0.81147391D-02        UMP4(DQ)=   -0.78447159684D+02
 E4(SDQ)=  -0.81299808D-02        UMP4(SDQ)=  -0.78447174926D+02
 DE(Corr)= -0.13257239     E(Corr)=     -78.438504796    
 NORM(A)=   0.10359787D+01
 Iteration Nr.   2
 **********************
 DD1Dir will call FoFMem   1 times, MxPair=        56
 NAB=    28 NAA=     0 NBB=     0.
 DE(Corr)= -0.14328261     E(CORR)=     -78.449215009     Delta=-1.07D-02
 NORM(A)=   0.10388953D+01
 Iteration Nr.   3
 **********************
 DD1Dir will call FoFMem   1 times, MxPair=        56
 NAB=    28 NAA=     0 NBB=     0.
 DE(Corr)= -0.14541548     E(CORR)=     -78.451347880     Delta=-2.13D-03
 NORM(A)=   0.10391335D+01
 Iteration Nr.   4
 **********************
 DD1Dir will call FoFMem   1 times, MxPair=        56
 NAB=    28 NAA=     0 NBB=     0.
 DE(Corr)= -0.14559292     E(CORR)=     -78.451525326     Delta=-1.77D-04
 NORM(A)=   0.10391419D+01
 Iteration Nr.   5
 **********************
 DD1Dir will call FoFMem   1 times, MxPair=        56
 NAB=    28 NAA=     0 NBB=     0.
 DE(Corr)= -0.14559935     E(CORR)=     -78.451531756     Delta=-6.43D-06
 NORM(A)=   0.10391390D+01
 Iteration Nr.   6
 **********************
 DD1Dir will call FoFMem   1 times, MxPair=        56
 NAB=    28 NAA=     0 NBB=     0.
 DE(Corr)= -0.14559790     E(CORR)=     -78.451530308     Delta= 1.45D-06
 NORM(A)=   0.10391397D+01
 Iteration Nr.   7
 **********************
 DD1Dir will call FoFMem   1 times, MxPair=        56
 NAB=    28 NAA=     0 NBB=     0.
 DE(Corr)= -0.14559828     E(CORR)=     -78.451530685     Delta=-3.77D-07
 NORM(A)=   0.10391398D+01
 Iteration Nr.   8
 **********************
 DD1Dir will call FoFMem   1 times, MxPair=        56
 NAB=    28 NAA=     0 NBB=     0.
 DE(Corr)= -0.14559833     E(CORR)=     -78.451530734     Delta=-4.88D-08
 NORM(A)=   0.10391397D+01
 Iteration Nr.   9
 **********************
 DD1Dir will call FoFMem   1 times, MxPair=        56
 NAB=    28 NAA=     0 NBB=     0.
 DE(Corr)= -0.14559830     E(CORR)=     -78.451530702     Delta= 3.19D-08
 NORM(A)=   0.10391397D+01
 Iteration Nr.  10
 **********************
 DD1Dir will call FoFMem   1 times, MxPair=        56
 NAB=    28 NAA=     0 NBB=     0.
 DE(Corr)= -0.14559828     E(CORR)=     -78.451530687     Delta= 1.42D-08
 NORM(A)=   0.10391397D+01
 Iteration Nr.  11
 **********************
 DD1Dir will call FoFMem   1 times, MxPair=        56
 NAB=    28 NAA=     0 NBB=     0.
 DE(Corr)= -0.14559828     E(CORR)=     -78.451530683     Delta= 4.16D-09
 NORM(A)=   0.10391397D+01
 Largest amplitude= 7.65D-02

 Z-AMPLITUDE ITERATIONS

 Iteration Nr.   1
 **********************
 DD1Dir will call FoFMem   1 times, MxPair=        56
 NAB=    28 NAA=     0 NBB=     0.
 DE(Z)  -0.14427925D+00          E(Z)=    -0.78450211656D+02
 NORM(A)=   0.10391397D+01
 Iteration Nr.   2
 **********************
 DD1Dir will call FoFMem   1 times, MxPair=        56
 NAB=    28 NAA=     0 NBB=     0.
 DE(Z)  -0.14427925D+00          E(Z)=    -0.78450211649D+02
 NORM(A)=   0.10391397D+01
 Iteration Nr.   3
 **********************
 DD1Dir will call FoFMem   1 times, MxPair=        56
 NAB=    28 NAA=     0 NBB=     0.
 DE(Z)  -0.14427927D+00          E(Z)=    -0.78450211672D+02
 NORM(A)=   0.10391397D+01
 Iteration Nr.   4
 **********************
 DD1Dir will call FoFMem   1 times, MxPair=        56
 NAB=    28 NAA=     0 NBB=     0.
 DE(Z)  -0.14427927D+00          E(Z)=    -0.78450211671D+02
 NORM(A)=   0.10391397D+01
 Iteration Nr.   5
 **********************
 DD1Dir will call FoFMem   1 times, MxPair=        56
 NAB=    28 NAA=     0 NBB=     0.
 DE(Z)  -0.14427926D+00          E(Z)=    -0.78450211666D+02
 NORM(A)=   0.10382176D+01
 Iteration Nr.   6
 **********************
 DD1Dir will call FoFMem   1 times, MxPair=        56
 NAB=    28 NAA=     0 NBB=     0.
 DE(Z)  -0.14384153D+00          E(Z)=    -0.78449773930D+02
 NORM(A)=   0.10382252D+01
 Iteration Nr.   7
 **********************
 DD1Dir will call FoFMem   1 times, MxPair=        56
 NAB=    28 NAA=     0 NBB=     0.
 DE(Z)  -0.14384715D+00          E(Z)=    -0.78449779557D+02
 NORM(A)=   0.10382339D+01
 Iteration Nr.   8
 **********************
 DD1Dir will call FoFMem   1 times, MxPair=        56
 NAB=    28 NAA=     0 NBB=     0.
 DE(Z)  -0.14385350D+00          E(Z)=    -0.78449785900D+02
 NORM(A)=   0.10382341D+01
 Iteration Nr.   9
 **********************
 DD1Dir will call FoFMem   1 times, MxPair=        56
 NAB=    28 NAA=     0 NBB=     0.
 DE(Z)  -0.14385358D+00          E(Z)=    -0.78449785986D+02
 NORM(A)=   0.10382341D+01
 Iteration Nr.  10
 **********************
 DD1Dir will call FoFMem   1 times, MxPair=        56
 NAB=    28 NAA=     0 NBB=     0.
 DE(Z)  -0.14385356D+00          E(Z)=    -0.78449785966D+02
 NORM(A)=   0.10382341D+01
 Iteration Nr.  11
 **********************
 DD1Dir will call FoFMem   1 times, MxPair=        56
 NAB=    28 NAA=     0 NBB=     0.
 DE(Z)  -0.14385357D+00          E(Z)=    -0.78449785971D+02
 NORM(A)=   0.10382341D+01
 Discarding MO integrals.
          IDoAtm=11111111
          Differentiating once with respect to electric field.
                with respect to dipole field.
          Differentiating once with respect to nuclear coordinates.
 Keep R1 ints in memory in symmetry-blocked form, NReq=822003.
          There are     1 degrees of freedom in the 1st order CPHF.  IDoFFX=0 NUNeed=     1.
 LinEq1:  Iter=  0 NonCon=     1 RMS=7.35D-04 Max=3.55D-03 NDo=     1
 AX will form     1 AO Fock derivatives at one time.
 LinEq1:  Iter=  1 NonCon=     1 RMS=5.72D-05 Max=2.64D-04 NDo=     1
 LinEq1:  Iter=  2 NonCon=     1 RMS=9.53D-06 Max=4.52D-05 NDo=     1
 LinEq1:  Iter=  3 NonCon=     1 RMS=3.71D-07 Max=1.74D-06 NDo=     1
 LinEq1:  Iter=  4 NonCon=     1 RMS=2.39D-08 Max=9.00D-08 NDo=     1
 LinEq1:  Iter=  5 NonCon=     1 RMS=1.98D-09 Max=8.20D-09 NDo=     1
 LinEq1:  Iter=  6 NonCon=     0 RMS=3.92D-11 Max=1.67D-10 NDo=     1
 Linear equations converged to 1.000D-10 1.000D-09 after     6 iterations.
 End of Minotr F.D. properties file   721 does not exist.
 End of Minotr F.D. properties file   722 does not exist.
 End of Minotr F.D. properties file   788 does not exist.

 **********************************************************************

            Population analysis using the SCF density.

 **********************************************************************

 Orbital symmetries:
       Occupied  (AU) (AG) (AG) (AU) (AU) (AU) (AG) (AG) (AG)
       Virtual   (AU) (AU) (AU) (AG) (AU) (AG) (AG)
 The electronic state is 1-AG.
 Alpha  occ. eigenvalues --  -11.03569 -11.03539  -0.97951  -0.80774  -0.57068
 Alpha  occ. eigenvalues --   -0.57068  -0.46910  -0.45822  -0.45822
 Alpha virt. eigenvalues --    0.65158   0.65158   0.68738   0.72584   0.77231
 Alpha virt. eigenvalues --    0.78393   0.78393
          Condensed to atoms (all electrons):
               1          2          3          4          5          6
     1  C    4.719063   0.361788   0.383717   0.383717   0.383716  -0.020647
     2  C    0.361788   4.719063  -0.020647  -0.020647  -0.020647   0.383716
     3  H    0.383717  -0.020647   0.625870  -0.021571  -0.021571  -0.002157
     4  H    0.383717  -0.020647  -0.021571   0.625871  -0.021570  -0.002157
     5  H    0.383716  -0.020647  -0.021571  -0.021570   0.625872   0.001828
     6  H   -0.020647   0.383716  -0.002157  -0.002157   0.001828   0.625872
     7  H   -0.020647   0.383717  -0.002157   0.001828  -0.002157  -0.021570
     8  H   -0.020647   0.383717   0.001828  -0.002157  -0.002157  -0.021571
               7          8
     1  C   -0.020647  -0.020647
     2  C    0.383717   0.383717
     3  H   -0.002157   0.001828
     4  H    0.001828  -0.002157
     5  H   -0.002157  -0.002157
     6  H   -0.021570  -0.021571
     7  H    0.625871  -0.021571
     8  H   -0.021571   0.625870
 Mulliken charges:
               1
     1  C   -0.170061
     2  C   -0.170061
     3  H    0.056687
     4  H    0.056687
     5  H    0.056686
     6  H    0.056686
     7  H    0.056687
     8  H    0.056687
 Sum of Mulliken charges =   0.00000
 Mulliken charges with hydrogens summed into heavy atoms:
               1
     1  C    0.000000
     2  C    0.000000
 Electronic spatial extent (au):  <R**2>=            107.6737
 Charge=              0.0000 electrons
 Dipole moment (field-independent basis, Debye):
    X=              0.0000    Y=              0.0000    Z=              0.0000  Tot=              0.0000
 Quadrupole moment (field-independent basis, Debye-Ang):
   XX=            -14.1546   YY=            -14.3580   ZZ=            -14.0190
   XY=              0.2145   XZ=              0.0000   YZ=              0.0000
 Traceless Quadrupole moment (field-independent basis, Debye-Ang):
   XX=              0.0226   YY=             -0.1808   ZZ=              0.1582
   XY=              0.2145   XZ=              0.0000   YZ=              0.0000
 Octapole moment (field-independent basis, Debye-Ang**2):
  XXX=              0.0000  YYY=              0.0000  ZZZ=              0.0000  XYY=              0.0000
  XXY=              0.0000  XXZ=              0.0000  XZZ=              0.0000  YZZ=              0.0000
  YYZ=              0.0000  XYZ=              0.0000
 Hexadecapole moment (field-independent basis, Debye-Ang**3):
 XXXX=            -41.1666 YYYY=            -66.6279 ZZZZ=            -25.1558 XXXY=             12.9121
 XXXZ=             -1.3147 YYYX=             14.2961 YYYZ=              0.8316 ZZZX=              0.6135
 ZZZY=             -0.9700 XXYY=            -18.5876 XXZZ=            -10.7913 YYZZ=            -14.8842
 XXYZ=              0.1384 YYXZ=              0.7011 ZZXY=              3.9573
 N-N= 4.216961703580D+01 E-N=-2.658275675480D+02  KE= 7.764692901580D+01
 Symmetry AG   KE= 4.039344020888D+01
 Symmetry AU   KE= 3.725348880693D+01
 Calling FoFJK, ICntrl=  10002127 FMM=F ISym2X=1 I1Cent= 0 IOpClX= 0 NMat=1 NMatS=1 NMatT=0.
 ***** Axes restored to original set *****
 -------------------------------------------------------------------
 Center     Atomic                   Forces (Hartrees/Bohr)
 Number     Number              X              Y              Z
 -------------------------------------------------------------------
      1        6           0.000170777   -0.000262292   -0.000001431
      2        6          -0.000170777    0.000262292    0.000001431
      3        1          -0.013271149   -0.000574165    0.007352690
      4        1          -0.004044824    0.005261332   -0.013651507
      5        1           0.006714237    0.012067932    0.006300369
      6        1          -0.006714237   -0.012067932   -0.006300369
      7        1           0.004044824   -0.005261332    0.013651507
      8        1           0.013271149    0.000574165   -0.007352690
 -------------------------------------------------------------------
 Cartesian Forces:  Max     0.013651507 RMS     0.007590726

 GradGradGradGradGradGradGradGradGradGradGradGradGradGradGradGradGradGrad
 Berny optimization.
 FormGI is forming the generalized inverse of G from B-inverse, IUseBI=4.
 Internal  Forces:  Max     0.019514548 RMS     0.007965275
 Search for a local minimum.
 Step number   1 out of a maximum of   38
 All quantities printed in internal units (Hartrees-Bohrs-Radians)
 Mixed Optimization -- RFO/linear search
 Second derivative matrix not updated -- first step.
 ITU=  0
     Eigenvalues ---    0.00280   0.05575   0.05575   0.05575   0.05575
     Eigenvalues ---    0.16000   0.16000   0.16000   0.16000   0.16000
     Eigenvalues ---    0.16000   0.28810   0.34549   0.34549   0.34549
     Eigenvalues ---    0.34549   0.34549   0.34549
 RFO step:  Lambda=-5.35641456D-03 EMin= 2.80064107D-03
 Linear search not attempted -- first point.
 Iteration  1 RMS(Cart)=  0.03510773 RMS(Int)=  0.00010222
 Iteration  2 RMS(Cart)=  0.00014466 RMS(Int)=  0.00002401
 Iteration  3 RMS(Cart)=  0.00000002 RMS(Int)=  0.00002401
 ClnCor:  largest displacement from symmetrization is 1.34D-10 for atom     8.
 Variable       Old X    -DE/DX   Delta X   Delta X   Delta X     New X
                                 (Linear)    (Quad)   (Total)
    R1        2.90400   0.01951   0.00000   0.06650   0.06650   2.97050
    R2        2.06413   0.01512   0.00000   0.04308   0.04308   2.10721
    R3        2.06413   0.01511   0.00000   0.04307   0.04307   2.10721
    R4        2.06413   0.01511   0.00000   0.04307   0.04307   2.10721
    R5        2.06413   0.01511   0.00000   0.04307   0.04307   2.10721
    R6        2.06413   0.01511   0.00000   0.04307   0.04307   2.10721
    R7        2.06413   0.01512   0.00000   0.04308   0.04308   2.10721
    A1        1.92692   0.00143   0.00000   0.00862   0.00858   1.93551
    A2        1.92692   0.00143   0.00000   0.00863   0.00859   1.93551
    A3        1.92691   0.00143   0.00000   0.00864   0.00860   1.93551
    A4        1.89407  -0.00147   0.00000  -0.00892  -0.00895   1.88511
    A5        1.89407  -0.00147   0.00000  -0.00892  -0.00895   1.88511
    A6        1.89407  -0.00148   0.00000  -0.00892  -0.00896   1.88511
    A7        1.92691   0.00143   0.00000   0.00864   0.00860   1.93551
    A8        1.92692   0.00143   0.00000   0.00863   0.00859   1.93551
    A9        1.92692   0.00143   0.00000   0.00862   0.00858   1.93551
   A10        1.89407  -0.00148   0.00000  -0.00892  -0.00896   1.88511
   A11        1.89407  -0.00147   0.00000  -0.00892  -0.00895   1.88511
   A12        1.89407  -0.00147   0.00000  -0.00892  -0.00895   1.88511
    D1        1.04720   0.00000   0.00000   0.00000   0.00000   1.04720
    D2       -1.04720   0.00000   0.00000   0.00000   0.00000  -1.04720
    D3        3.14159   0.00000   0.00000   0.00000   0.00000   3.14159
    D4       -1.04720   0.00000   0.00000   0.00000   0.00000  -1.04720
    D5        3.14159   0.00000   0.00000   0.00000   0.00000   3.14159
    D6        1.04720   0.00000   0.00000   0.00000   0.00000   1.04720
    D7        3.14159   0.00000   0.00000   0.00000   0.00000  -3.14159
    D8        1.04720   0.00000   0.00000   0.00000   0.00000   1.04720
    D9       -1.04720   0.00000   0.00000   0.00000   0.00000  -1.04720
         Item               Value     Threshold  Converged?
 Maximum Force            0.019515     0.000450     NO 
 RMS     Force            0.007965     0.000300     NO 
 Maximum Displacement     0.071236     0.001800     NO 
 RMS     Displacement     0.035179     0.001200     NO 
 Predicted change in Energy=-2.722340D-03
 GradGradGradGradGradGradGradGradGradGradGradGradGradGradGradGradGradGrad

                          Input orientation:                          
 ---------------------------------------------------------------------
 Center     Atomic      Atomic             Coordinates (Angstroms)
 Number     Number       Type             X           Y           Z
 ---------------------------------------------------------------------
      1          6           0       -1.779253    1.619951    0.000000
      2          6           0       -0.938927    0.291499    0.000000
      3          1           0       -2.734039    1.486612    0.560377
      4          1           0       -2.030926    1.931375   -1.040717
      5          1           0       -1.210659    2.450247    0.480340
      6          1           0       -1.507521   -0.538797   -0.480340
      7          1           0       -0.687254   -0.019925    1.040717
      8          1           0        0.015859    0.424838   -0.560377
 ---------------------------------------------------------------------
                    Distance matrix (angstroms):
                    1          2          3          4          5
     1  C    0.000000
     2  C    1.571920   0.000000
     3  H    1.115087   2.228171   0.000000
     4  H    1.115086   2.228171   1.804352   0.000000
     5  H    1.115086   2.228173   1.804352   1.804350   0.000000
     6  H    2.228173   1.115086   2.586449   2.586450   3.153635
     7  H    2.228171   1.115086   2.586447   3.153632   2.586450
     8  H    2.228171   1.115087   3.153632   2.586447   2.586449
                    6          7          8
     6  H    0.000000
     7  H    1.804350   0.000000
     8  H    1.804352   1.804352   0.000000
 Stoichiometry    C2H6
 Framework group  CI[X(C2H6)]
 Deg. of freedom     9
 Full point group                 CI      NOp   2
 Largest Abelian subgroup         CI      NOp   2
 Largest concise Abelian subgroup CI      NOp   2
                         Standard orientation:                         
 ---------------------------------------------------------------------
 Center     Atomic      Atomic             Coordinates (Angstroms)
 Number     Number       Type             X           Y           Z
 ---------------------------------------------------------------------
      1          6           0       -0.420163    0.664226    0.000000
      2          6           0        0.420163   -0.664226    0.000000
      3          1           0       -1.374949    0.530887    0.560377
      4          1           0       -0.671836    0.975650   -1.040717
      5          1           0        0.148431    1.494522    0.480340
      6          1           0       -0.148431   -1.494522   -0.480340
      7          1           0        0.671836   -0.975650    1.040717
      8          1           0        1.374949   -0.530887   -0.560377
 ---------------------------------------------------------------------
 Rotational constants (GHZ):     77.0122549     19.0140248     19.0140199
 Standard basis: STO-3G (5D, 7F)
 There are     8 symmetry adapted cartesian basis functions of AG  symmetry.
 There are     8 symmetry adapted cartesian basis functions of AU  symmetry.
 There are     8 symmetry adapted basis functions of AG  symmetry.
 There are     8 symmetry adapted basis functions of AU  symmetry.
    16 basis functions,    48 primitive gaussians,    16 cartesian basis functions
     9 alpha electrons        9 beta electrons
       nuclear repulsion energy        41.2438223038 Hartrees.
 NAtoms=    8 NActive=    8 NUniq=    4 SFac= 4.00D+00 NAtFMM=   60 NAOKFM=F Big=F
 Integral buffers will be    131072 words long.
 Raffenetti 1 integral format.
 Two-electron integral symmetry is turned on.
 One-electron integrals computed using PRISM.
 NBasis=    16 RedAO= T EigKep=  1.58D-01  NBF=     8     8
 NBsUse=    16 1.00D-06 EigRej= -1.00D+00 NBFU=     8     8
 Initial guess from the checkpoint file:  "/scr/Gau-24135.chk"
 B after Tr=     0.000000    0.000000    0.000000
         Rot=    1.000000    0.000000    0.000000    0.000001 Ang=   0.00 deg.
 Initial guess orbital symmetries:
       Occupied  (AU) (AG) (AG) (AU) (AU) (AU) (AG) (AG) (AG)
       Virtual   (AG) (AG) (AG) (AU) (AU) (AU) (AU)
 ExpMin= 1.69D-01 ExpMax= 7.16D+01 ExpMxC= 7.16D+01 IAcc=1 IRadAn=         1 AccDes= 0.00D+00
 Harris functional with IExCor=  205 and IRadAn=       1 diagonalized for initial guess.
 HarFok:  IExCor=  205 AccDes= 0.00D+00 IRadAn=         1 IDoV= 1 UseB2=F ITyADJ=14
 ICtDFT=  3500011 ScaDFX=  1.000000  1.000000  1.000000  1.000000
 FoFCou: FMM=F IPFlag=           0 FMFlag=      100000 FMFlg1=           0
         NFxFlg=           0 DoJE=T BraDBF=F KetDBF=T FulRan=T
         wScrn=  0.000000 ICntrl=     500 IOpCl=  0 I1Cent=   200000004 NGrid=           0
         NMat0=    1 NMatS0=      1 NMatT0=    0 NMatD0=    1 NMtDS0=    0 NMtDT0=    0
 Petite list used in FoFCou.
 Keep R1 ints in memory in symmetry-blocked form, NReq=838350.
 Requested convergence on RMS density matrix=1.00D-08 within 128 cycles.
 Requested convergence on MAX density matrix=1.00D-06.
 Requested convergence on             energy=1.00D-06.
 No special actions if energy rises.
 SCF Done:  E(RHF) =  -78.3012694128     A.U. after    7 cycles
            NFock=  7  Conv=0.14D-08     -V/T= 2.0102
 ExpMin= 1.69D-01 ExpMax= 7.16D+01 ExpMxC= 7.16D+01 IAcc=3 IRadAn=         5 AccDes= 0.00D+00
 HarFok:  IExCor=  205 AccDes= 0.00D+00 IRadAn=         5 IDoV=-2 UseB2=F ITyADJ=14
 ICtDFT= 12500011 ScaDFX=  1.000000  1.000000  1.000000  1.000000
 Range of M.O.s used for correlation:     3    16
 NBasis=    16 NAE=     9 NBE=     9 NFC=     2 NFV=     0
 NROrb=     14 NOA=     7 NOB=     7 NVA=     7 NVB=     7
 Semi-Direct transformation.
 ModeAB=           4 MOrb=             7 LenV=      33440010
 LASXX=         2581 LTotXX=        2581 LenRXX=        5950
 LTotAB=        3369 MaxLAS=        8232 LenRXY=           0
 NonZer=        8531 LenScr=      785920 LnRSAI=        8232
 LnScr1=      785920 LExtra=           0 Total=      1586022
 MaxDsk=          -1 SrtSym=           T ITran=            4
 JobTyp=0 Pass  1:  I=   1 to   7.
 (rs|ai) integrals will be sorted in core.
 Spin components of T(2) and E(2):
     alpha-alpha T2 =       0.1717381501D-02 E2=     -0.4448694247D-02
     alpha-beta  T2 =       0.4050198765D-01 E2=     -0.1023527993D+00
     beta-beta   T2 =       0.1717381501D-02 E2=     -0.4448694247D-02
 ANorm=    0.1021732230D+01
 E2 =    -0.1112501878D+00 EUMP2 =    -0.78412519600627D+02
 Keep R2 and R3 ints in memory in symmetry-blocked form, NReq=811030.
 Iterations=  50 Convergence= 0.100D-07
 Iteration Nr.   1
 **********************
 DD1Dir will call FoFMem   1 times, MxPair=        56
 NAB=    28 NAA=     0 NBB=     0.
 MP4(R+Q)=  0.58868188D-03
 E3=       -0.27710756D-01        EUMP3=      -0.78440230357D+02
 E4(DQ)=   -0.85891700D-02        UMP4(DQ)=   -0.78448819527D+02
 E4(SDQ)=  -0.86058629D-02        UMP4(SDQ)=  -0.78448836220D+02
 DE(Corr)= -0.13837127     E(Corr)=     -78.439640680    
 NORM(A)=   0.10385714D+01
 Iteration Nr.   2
 **********************
 DD1Dir will call FoFMem   1 times, MxPair=        56
 NAB=    28 NAA=     0 NBB=     0.
 DE(Corr)= -0.14967937     E(CORR)=     -78.450948782     Delta=-1.13D-02
 NORM(A)=   0.10419263D+01
 Iteration Nr.   3
 **********************
 DD1Dir will call FoFMem   1 times, MxPair=        56
 NAB=    28 NAA=     0 NBB=     0.
 DE(Corr)= -0.15207903     E(CORR)=     -78.453348443     Delta=-2.40D-03
 NORM(A)=   0.10422074D+01
 Iteration Nr.   4
 **********************
 DD1Dir will call FoFMem   1 times, MxPair=        56
 NAB=    28 NAA=     0 NBB=     0.
 DE(Corr)= -0.15228307     E(CORR)=     -78.453552484     Delta=-2.04D-04
 NORM(A)=   0.10422179D+01
 Iteration Nr.   5
 **********************
 DD1Dir will call FoFMem   1 times, MxPair=        56
 NAB=    28 NAA=     0 NBB=     0.
 DE(Corr)= -0.15229085     E(CORR)=     -78.453560263     Delta=-7.78D-06
 NORM(A)=   0.10422146D+01
 Iteration Nr.   6
 **********************
 DD1Dir will call FoFMem   1 times, MxPair=        56
 NAB=    28 NAA=     0 NBB=     0.
 DE(Corr)= -0.15228922     E(CORR)=     -78.453558635     Delta= 1.63D-06
 NORM(A)=   0.10422154D+01
 Iteration Nr.   7
 **********************
 DD1Dir will call FoFMem   1 times, MxPair=        56
 NAB=    28 NAA=     0 NBB=     0.
 DE(Corr)= -0.15228969     E(CORR)=     -78.453559102     Delta=-4.67D-07
 NORM(A)=   0.10422155D+01
 Iteration Nr.   8
 **********************
 DD1Dir will call FoFMem   1 times, MxPair=        56
 NAB=    28 NAA=     0 NBB=     0.
 DE(Corr)= -0.15228975     E(CORR)=     -78.453559167     Delta=-6.49D-08
 NORM(A)=   0.10422155D+01
 Iteration Nr.   9
 **********************
 DD1Dir will call FoFMem   1 times, MxPair=        56
 NAB=    28 NAA=     0 NBB=     0.
 DE(Corr)= -0.15228971     E(CORR)=     -78.453559126     Delta= 4.06D-08
 NORM(A)=   0.10422154D+01
 Iteration Nr.  10
 **********************
 DD1Dir will call FoFMem   1 times, MxPair=        56
 NAB=    28 NAA=     0 NBB=     0.
 DE(Corr)= -0.15228970     E(CORR)=     -78.453559108     Delta= 1.81D-08
 NORM(A)=   0.10422154D+01
 Iteration Nr.  11
 **********************
 DD1Dir will call FoFMem   1 times, MxPair=        56
 NAB=    28 NAA=     0 NBB=     0.
 DE(Corr)= -0.15228969     E(CORR)=     -78.453559103     Delta= 5.20D-09
 NORM(A)=   0.10422154D+01
 Largest amplitude= 8.00D-02

 Z-AMPLITUDE ITERATIONS

 Iteration Nr.   1
 **********************
 DD1Dir will call FoFMem   1 times, MxPair=        56
 NAB=    28 NAA=     0 NBB=     0.
 DE(Z)  -0.15080606D+00          E(Z)=    -0.78452075472D+02
 NORM(A)=   0.10422154D+01
 Iteration Nr.   2
 **********************
 DD1Dir will call FoFMem   1 times, MxPair=        56
 NAB=    28 NAA=     0 NBB=     0.
 DE(Z)  -0.15080606D+00          E(Z)=    -0.78452075469D+02
 NORM(A)=   0.10422154D+01
 Iteration Nr.   3
 **********************
 DD1Dir will call FoFMem   1 times, MxPair=        56
 NAB=    28 NAA=     0 NBB=     0.
 DE(Z)  -0.15080606D+00          E(Z)=    -0.78452075472D+02
 NORM(A)=   0.10422154D+01
 Iteration Nr.   4
 **********************
 DD1Dir will call FoFMem   1 times, MxPair=        56
 NAB=    28 NAA=     0 NBB=     0.
 DE(Z)  -0.15080606D+00          E(Z)=    -0.78452075471D+02
 NORM(A)=   0.10422154D+01
 Iteration Nr.   5
 **********************
 DD1Dir will call FoFMem   1 times, MxPair=        56
 NAB=    28 NAA=     0 NBB=     0.
 DE(Z)  -0.15080606D+00          E(Z)=    -0.78452075471D+02
 NORM(A)=   0.10411719D+01
 Iteration Nr.   6
 **********************
 DD1Dir will call FoFMem   1 times, MxPair=        56
 NAB=    28 NAA=     0 NBB=     0.
 DE(Z)  -0.15033913D+00          E(Z)=    -0.78451608540D+02
 NORM(A)=   0.10411723D+01
 Iteration Nr.   7
 **********************
 DD1Dir will call FoFMem   1 times, MxPair=        56
 NAB=    28 NAA=     0 NBB=     0.
 DE(Z)  -0.15033011D+00          E(Z)=    -0.78451599521D+02
 NORM(A)=   0.10411704D+01
 Iteration Nr.   8
 **********************
 DD1Dir will call FoFMem   1 times, MxPair=        56
 NAB=    28 NAA=     0 NBB=     0.
 DE(Z)  -0.15032854D+00          E(Z)=    -0.78451597953D+02
 NORM(A)=   0.10411703D+01
 Iteration Nr.   9
 **********************
 DD1Dir will call FoFMem   1 times, MxPair=        56
 NAB=    28 NAA=     0 NBB=     0.
 DE(Z)  -0.15032845D+00          E(Z)=    -0.78451597862D+02
 NORM(A)=   0.10411704D+01
 Iteration Nr.  10
 **********************
 DD1Dir will call FoFMem   1 times, MxPair=        56
 NAB=    28 NAA=     0 NBB=     0.
 DE(Z)  -0.15032848D+00          E(Z)=    -0.78451597896D+02
 NORM(A)=   0.10411704D+01
 Iteration Nr.  11
 **********************
 DD1Dir will call FoFMem   1 times, MxPair=        56
 NAB=    28 NAA=     0 NBB=     0.
 DE(Z)  -0.15032851D+00          E(Z)=    -0.78451597922D+02
 NORM(A)=   0.10411704D+01
 Iteration Nr.  12
 **********************
 DD1Dir will call FoFMem   1 times, MxPair=        56
 NAB=    28 NAA=     0 NBB=     0.
 DE(Z)  -0.15032851D+00          E(Z)=    -0.78451597925D+02
 NORM(A)=   0.10411704D+01
 Discarding MO integrals.
          IDoAtm=11111111
          Differentiating once with respect to electric field.
                with respect to dipole field.
          Differentiating once with respect to nuclear coordinates.
 Keep R1 ints in memory in symmetry-blocked form, NReq=822003.
          There are     1 degrees of freedom in the 1st order CPHF.  IDoFFX=0 NUNeed=     1.
 LinEq1:  Iter=  0 NonCon=     1 RMS=8.90D-04 Max=4.23D-03 NDo=     1
 AX will form     1 AO Fock derivatives at one time.
 LinEq1:  Iter=  1 NonCon=     1 RMS=7.20D-05 Max=2.79D-04 NDo=     1
 LinEq1:  Iter=  2 NonCon=     1 RMS=1.09D-05 Max=4.66D-05 NDo=     1
 LinEq1:  Iter=  3 NonCon=     1 RMS=4.12D-07 Max=2.21D-06 NDo=     1
 LinEq1:  Iter=  4 NonCon=     1 RMS=2.94D-08 Max=1.01D-07 NDo=     1
 LinEq1:  Iter=  5 NonCon=     1 RMS=2.35D-09 Max=9.55D-09 NDo=     1
 LinEq1:  Iter=  6 NonCon=     0 RMS=7.02D-11 Max=2.60D-10 NDo=     1
 Linear equations converged to 1.000D-10 1.000D-09 after     6 iterations.
 End of Minotr F.D. properties file   721 does not exist.
 End of Minotr F.D. properties file   722 does not exist.
 End of Minotr F.D. properties file   788 does not exist.
 Calling FoFJK, ICntrl=  10002127 FMM=F ISym2X=1 I1Cent= 0 IOpClX= 0 NMat=1 NMatS=1 NMatT=0.
 ***** Axes restored to original set *****
 -------------------------------------------------------------------
 Center     Atomic                   Forces (Hartrees/Bohr)
 Number     Number              X              Y              Z
 -------------------------------------------------------------------
      1        6           0.000892798   -0.001413183    0.000000229
      2        6          -0.000892798    0.001413183   -0.000000229
      3        1           0.002346748   -0.000401403   -0.001128624
      4        1           0.000930516   -0.001297164    0.002095338
      5        1          -0.000720779   -0.002342118   -0.000967045
      6        1           0.000720779    0.002342118    0.000967045
      7        1          -0.000930516    0.001297164   -0.002095338
      8        1          -0.002346748    0.000401403    0.001128624
 -------------------------------------------------------------------
 Cartesian Forces:  Max     0.002346748 RMS     0.001402839

 GradGradGradGradGradGradGradGradGradGradGradGradGradGradGradGradGradGrad
 Berny optimization.
 Using GEDIIS/GDIIS optimizer.
 FormGI is forming the generalized inverse of G from B-inverse, IUseBI=4.
 Internal  Forces:  Max     0.006453079 RMS     0.001762082
 Search for a local minimum.
 Step number   2 out of a maximum of   38
 All quantities printed in internal units (Hartrees-Bohrs-Radians)
 Mixed Optimization -- RFO/linear search
 Update second derivatives using D2CorX and points    1    2
 DE= -2.03D-03 DEPred=-2.72D-03 R= 7.45D-01
 TightC=F SS=  1.41D+00  RLast= 1.28D-01 DXNew= 5.0454D-01 3.8511D-01
 Trust test= 7.45D-01 RLast= 1.28D-01 DXMaxT set to 3.85D-01
 ITU=  1  0
 Use linear search instead of GDIIS.
     Eigenvalues ---    0.00280   0.05485   0.05485   0.05485   0.05485
     Eigenvalues ---    0.16000   0.16000   0.16000   0.16000   0.16000
     Eigenvalues ---    0.16254   0.30188   0.34549   0.34549   0.34549
     Eigenvalues ---    0.34549   0.34549   0.40164
 RFO step:  Lambda=-2.90576656D-05 EMin= 2.80064107D-03
 Quartic linear search produced a step of -0.18790.
 Iteration  1 RMS(Cart)=  0.00922078 RMS(Int)=  0.00000770
 Iteration  2 RMS(Cart)=  0.00000811 RMS(Int)=  0.00000034
 Iteration  3 RMS(Cart)=  0.00000000 RMS(Int)=  0.00000034
 ClnCor:  largest displacement from symmetrization is 3.16D-09 for atom     7.
 Variable       Old X    -DE/DX   Delta X   Delta X   Delta X     New X
                                 (Linear)    (Quad)   (Total)
    R1        2.97050  -0.00645  -0.01249  -0.00597  -0.01846   2.95204
    R2        2.10721  -0.00253  -0.00809   0.00204  -0.00605   2.10116
    R3        2.10721  -0.00253  -0.00809   0.00204  -0.00605   2.10116
    R4        2.10721  -0.00253  -0.00809   0.00204  -0.00605   2.10116
    R5        2.10721  -0.00253  -0.00809   0.00204  -0.00605   2.10116
    R6        2.10721  -0.00253  -0.00809   0.00204  -0.00605   2.10116
    R7        2.10721  -0.00253  -0.00809   0.00204  -0.00605   2.10116
    A1        1.93551  -0.00074  -0.00161  -0.00226  -0.00387   1.93164
    A2        1.93551  -0.00074  -0.00161  -0.00226  -0.00387   1.93164
    A3        1.93551  -0.00074  -0.00162  -0.00226  -0.00387   1.93164
    A4        1.88511   0.00078   0.00168   0.00237   0.00405   1.88917
    A5        1.88511   0.00078   0.00168   0.00237   0.00405   1.88917
    A6        1.88511   0.00078   0.00168   0.00237   0.00406   1.88917
    A7        1.93551  -0.00074  -0.00162  -0.00226  -0.00387   1.93164
    A8        1.93551  -0.00074  -0.00161  -0.00226  -0.00387   1.93164
    A9        1.93551  -0.00074  -0.00161  -0.00226  -0.00387   1.93164
   A10        1.88511   0.00078   0.00168   0.00237   0.00406   1.88917
   A11        1.88511   0.00078   0.00168   0.00237   0.00405   1.88917
   A12        1.88511   0.00078   0.00168   0.00237   0.00405   1.88917
    D1        1.04720   0.00000   0.00000   0.00000   0.00000   1.04720
    D2       -1.04720   0.00000   0.00000   0.00000   0.00000  -1.04720
    D3        3.14159   0.00000   0.00000   0.00000   0.00000   3.14159
    D4       -1.04720   0.00000   0.00000   0.00000   0.00000  -1.04720
    D5        3.14159   0.00000   0.00000   0.00000   0.00000   3.14159
    D6        1.04720   0.00000   0.00000   0.00000   0.00000   1.04720
    D7        3.14159   0.00000   0.00000   0.00000   0.00000   3.14159
    D8        1.04720   0.00000   0.00000   0.00000   0.00000   1.04720
    D9       -1.04720   0.00000   0.00000   0.00000   0.00000  -1.04720
         Item               Value     Threshold  Converged?
 Maximum Force            0.006453     0.000450     NO 
 RMS     Force            0.001762     0.000300     NO 
 Maximum Displacement     0.017366     0.001800     NO 
 RMS     Displacement     0.009221     0.001200     NO 
 Predicted change in Energy=-1.174822D-04
 GradGradGradGradGradGradGradGradGradGradGradGradGradGradGradGradGradGrad

                          Input orientation:                          
 ---------------------------------------------------------------------
 Center     Atomic      Atomic             Coordinates (Angstroms)
 Number     Number       Type             X           Y           Z
 ---------------------------------------------------------------------
      1          6           0       -1.776643    1.615823    0.000000
      2          6           0       -0.941537    0.295627    0.000000
      3          1           0       -2.727624    1.478777    0.559590
      4          1           0       -2.025499    1.922915   -1.039256
      5          1           0       -1.206383    2.441057    0.479666
      6          1           0       -1.511797   -0.529607   -0.479666
      7          1           0       -0.692681   -0.011465    1.039256
      8          1           0        0.009444    0.432673   -0.559590
 ---------------------------------------------------------------------
                    Distance matrix (angstroms):
                    1          2          3          4          5
     1  C    0.000000
     2  C    1.562152   0.000000
     3  H    1.111885   2.214293   0.000000
     4  H    1.111885   2.214293   1.801818   0.000000
     5  H    1.111885   2.214292   1.801817   1.801817   0.000000
     6  H    2.214292   1.111885   2.567469   2.567469   3.136629
     7  H    2.214293   1.111885   2.567469   3.136629   2.567469
     8  H    2.214293   1.111885   3.136630   2.567469   2.567469
                    6          7          8
     6  H    0.000000
     7  H    1.801817   0.000000
     8  H    1.801817   1.801818   0.000000
 Stoichiometry    C2H6
 Framework group  CI[X(C2H6)]
 Deg. of freedom     9
 Full point group                 CI      NOp   2
 Largest Abelian subgroup         CI      NOp   2
 Largest concise Abelian subgroup CI      NOp   2
                         Standard orientation:                         
 ---------------------------------------------------------------------
 Center     Atomic      Atomic             Coordinates (Angstroms)
 Number     Number       Type             X           Y           Z
 ---------------------------------------------------------------------
      1          6           0       -0.417553    0.660098    0.000000
      2          6           0        0.417553   -0.660098    0.000000
      3          1           0       -1.368534    0.523052    0.559590
      4          1           0       -0.666409    0.967190   -1.039256
      5          1           0        0.152707    1.485332    0.479666
      6          1           0       -0.152707   -1.485332   -0.479666
      7          1           0        0.666409   -0.967190    1.039256
      8          1           0        1.368534   -0.523052   -0.559590
 ---------------------------------------------------------------------
 Rotational constants (GHZ):     77.2290064     19.2575962     19.2575957
 Standard basis: STO-3G (5D, 7F)
 There are     8 symmetry adapted cartesian basis functions of AG  symmetry.
 There are     8 symmetry adapted cartesian basis functions of AU  symmetry.
 There are     8 symmetry adapted basis functions of AG  symmetry.
 There are     8 symmetry adapted basis functions of AU  symmetry.
    16 basis functions,    48 primitive gaussians,    16 cartesian basis functions
     9 alpha electrons        9 beta electrons
       nuclear repulsion energy        41.4366642346 Hartrees.
 NAtoms=    8 NActive=    8 NUniq=    4 SFac= 4.00D+00 NAtFMM=   60 NAOKFM=F Big=F
 Integral buffers will be    131072 words long.
 Raffenetti 1 integral format.
 Two-electron integral symmetry is turned on.
 One-electron integrals computed using PRISM.
 NBasis=    16 RedAO= T EigKep=  1.56D-01  NBF=     8     8
 NBsUse=    16 1.00D-06 EigRej= -1.00D+00 NBFU=     8     8
 Initial guess from the checkpoint file:  "/scr/Gau-24135.chk"
 B after Tr=     0.000000    0.000000    0.000000
         Rot=    1.000000    0.000000    0.000000    0.000000 Ang=   0.00 deg.
 Initial guess orbital symmetries:
       Occupied  (AU) (AG) (AG) (AU) (AU) (AU) (AG) (AG) (AG)
       Virtual   (AG) (AG) (AG) (AU) (AU) (AU) (AU)
 Keep R1 ints in memory in symmetry-blocked form, NReq=838434.
 Requested convergence on RMS density matrix=1.00D-08 within 128 cycles.
 Requested convergence on MAX density matrix=1.00D-06.
 Requested convergence on             energy=1.00D-06.
 No special actions if energy rises.
 SCF Done:  E(RHF) =  -78.3025266346     A.U. after    6 cycles
            NFock=  6  Conv=0.29D-08     -V/T= 2.0099
 ExpMin= 1.69D-01 ExpMax= 7.16D+01 ExpMxC= 7.16D+01 IAcc=3 IRadAn=         5 AccDes= 0.00D+00
 HarFok:  IExCor=  205 AccDes= 0.00D+00 IRadAn=         5 IDoV=-2 UseB2=F ITyADJ=14
 ICtDFT= 12500011 ScaDFX=  1.000000  1.000000  1.000000  1.000000
 Range of M.O.s used for correlation:     3    16
 NBasis=    16 NAE=     9 NBE=     9 NFC=     2 NFV=     0
 NROrb=     14 NOA=     7 NOB=     7 NVA=     7 NVB=     7
 Semi-Direct transformation.
 ModeAB=           4 MOrb=             7 LenV=      33439920
 LASXX=         2581 LTotXX=        2581 LenRXX=        5950
 LTotAB=        3369 MaxLAS=        8232 LenRXY=           0
 NonZer=        8531 LenScr=      785920 LnRSAI=        8232
 LnScr1=      785920 LExtra=           0 Total=      1586022
 MaxDsk=          -1 SrtSym=           T ITran=            4
 JobTyp=0 Pass  1:  I=   1 to   7.
 (rs|ai) integrals will be sorted in core.
 Spin components of T(2) and E(2):
     alpha-alpha T2 =       0.1688247824D-02 E2=     -0.4398824778D-02
     alpha-beta  T2 =       0.4002599874D-01 E2=     -0.1016425979D+00
     beta-beta   T2 =       0.1688247824D-02 E2=     -0.4398824778D-02
 ANorm=    0.1021470751D+01
 E2 =    -0.1104402475D+00 EUMP2 =    -0.78412966882070D+02
 Keep R2 and R3 ints in memory in symmetry-blocked form, NReq=811030.
 Iterations=  50 Convergence= 0.100D-07
 Iteration Nr.   1
 **********************
 DD1Dir will call FoFMem   1 times, MxPair=        56
 NAB=    28 NAA=     0 NBB=     0.
 MP4(R+Q)=  0.58006108D-03
 E3=       -0.27524377D-01        EUMP3=      -0.78440491259D+02
 E4(DQ)=   -0.85110536D-02        UMP4(DQ)=   -0.78449002312D+02
 E4(SDQ)=  -0.85274066D-02        UMP4(SDQ)=  -0.78449018665D+02
 DE(Corr)= -0.13738362     E(Corr)=     -78.439910254    
 NORM(A)=   0.10381252D+01
 Iteration Nr.   2
 **********************
 DD1Dir will call FoFMem   1 times, MxPair=        56
 NAB=    28 NAA=     0 NBB=     0.
 DE(Corr)= -0.14859509     E(CORR)=     -78.451121724     Delta=-1.12D-02
 NORM(A)=   0.10413999D+01
 Iteration Nr.   3
 **********************
 DD1Dir will call FoFMem   1 times, MxPair=        56
 NAB=    28 NAA=     0 NBB=     0.
 DE(Corr)= -0.15094584     E(CORR)=     -78.453472474     Delta=-2.35D-03
 NORM(A)=   0.10416723D+01
 Iteration Nr.   4
 **********************
 DD1Dir will call FoFMem   1 times, MxPair=        56
 NAB=    28 NAA=     0 NBB=     0.
 DE(Corr)= -0.15114464     E(CORR)=     -78.453671272     Delta=-1.99D-04
 NORM(A)=   0.10416823D+01
 Iteration Nr.   5
 **********************
 DD1Dir will call FoFMem   1 times, MxPair=        56
 NAB=    28 NAA=     0 NBB=     0.
 DE(Corr)= -0.15115217     E(CORR)=     -78.453678801     Delta=-7.53D-06
 NORM(A)=   0.10416790D+01
 Iteration Nr.   6
 **********************
 DD1Dir will call FoFMem   1 times, MxPair=        56
 NAB=    28 NAA=     0 NBB=     0.
 DE(Corr)= -0.15115056     E(CORR)=     -78.453677199     Delta= 1.60D-06
 NORM(A)=   0.10416798D+01
 Iteration Nr.   7
 **********************
 DD1Dir will call FoFMem   1 times, MxPair=        56
 NAB=    28 NAA=     0 NBB=     0.
 DE(Corr)= -0.15115101     E(CORR)=     -78.453677649     Delta=-4.51D-07
 NORM(A)=   0.10416799D+01
 Iteration Nr.   8
 **********************
 DD1Dir will call FoFMem   1 times, MxPair=        56
 NAB=    28 NAA=     0 NBB=     0.
 DE(Corr)= -0.15115108     E(CORR)=     -78.453677711     Delta=-6.20D-08
 NORM(A)=   0.10416799D+01
 Iteration Nr.   9
 **********************
 DD1Dir will call FoFMem   1 times, MxPair=        56
 NAB=    28 NAA=     0 NBB=     0.
 DE(Corr)= -0.15115104     E(CORR)=     -78.453677672     Delta= 3.92D-08
 NORM(A)=   0.10416798D+01
 Iteration Nr.  10
 **********************
 DD1Dir will call FoFMem   1 times, MxPair=        56
 NAB=    28 NAA=     0 NBB=     0.
 DE(Corr)= -0.15115102     E(CORR)=     -78.453677655     Delta= 1.74D-08
 NORM(A)=   0.10416798D+01
 Iteration Nr.  11
 **********************
 DD1Dir will call FoFMem   1 times, MxPair=        56
 NAB=    28 NAA=     0 NBB=     0.
 DE(Corr)= -0.15115102     E(CORR)=     -78.453677650     Delta= 5.07D-09
 NORM(A)=   0.10416798D+01
 Largest amplitude= 7.93D-02

 Z-AMPLITUDE ITERATIONS

 Iteration Nr.   1
 **********************
 DD1Dir will call FoFMem   1 times, MxPair=        56
 NAB=    28 NAA=     0 NBB=     0.
 DE(Z)  -0.14969700D+00          E(Z)=    -0.78452223630D+02
 NORM(A)=   0.10416798D+01
 Iteration Nr.   2
 **********************
 DD1Dir will call FoFMem   1 times, MxPair=        56
 NAB=    28 NAA=     0 NBB=     0.
 DE(Z)  -0.14969698D+00          E(Z)=    -0.78452223617D+02
 NORM(A)=   0.10416799D+01
 Iteration Nr.   3
 **********************
 DD1Dir will call FoFMem   1 times, MxPair=        56
 NAB=    28 NAA=     0 NBB=     0.
 DE(Z)  -0.14969701D+00          E(Z)=    -0.78452223642D+02
 NORM(A)=   0.10416799D+01
 Iteration Nr.   4
 **********************
 DD1Dir will call FoFMem   1 times, MxPair=        56
 NAB=    28 NAA=     0 NBB=     0.
 DE(Z)  -0.14969703D+00          E(Z)=    -0.78452223665D+02
 NORM(A)=   0.10416800D+01
 Iteration Nr.   5
 **********************
 DD1Dir will call FoFMem   1 times, MxPair=        56
 NAB=    28 NAA=     0 NBB=     0.
 DE(Z)  -0.14969709D+00          E(Z)=    -0.78452223723D+02
 NORM(A)=   0.10406414D+01
 Iteration Nr.   6
 **********************
 DD1Dir will call FoFMem   1 times, MxPair=        56
 NAB=    28 NAA=     0 NBB=     0.
 DE(Z)  -0.14921519D+00          E(Z)=    -0.78451741827D+02
 NORM(A)=   0.10406610D+01
 Iteration Nr.   7
 **********************
 DD1Dir will call FoFMem   1 times, MxPair=        56
 NAB=    28 NAA=     0 NBB=     0.
 DE(Z)  -0.14922958D+00          E(Z)=    -0.78451756214D+02
 NORM(A)=   0.10406592D+01
 Iteration Nr.   8
 **********************
 DD1Dir will call FoFMem   1 times, MxPair=        56
 NAB=    28 NAA=     0 NBB=     0.
 DE(Z)  -0.14922799D+00          E(Z)=    -0.78451754624D+02
 NORM(A)=   0.10406598D+01
 Iteration Nr.   9
 **********************
 DD1Dir will call FoFMem   1 times, MxPair=        56
 NAB=    28 NAA=     0 NBB=     0.
 DE(Z)  -0.14922818D+00          E(Z)=    -0.78451754816D+02
 NORM(A)=   0.10406598D+01
 Iteration Nr.  10
 **********************
 DD1Dir will call FoFMem   1 times, MxPair=        56
 NAB=    28 NAA=     0 NBB=     0.
 DE(Z)  -0.14922819D+00          E(Z)=    -0.78451754829D+02
 NORM(A)=   0.10406598D+01
 Iteration Nr.  11
 **********************
 DD1Dir will call FoFMem   1 times, MxPair=        56
 NAB=    28 NAA=     0 NBB=     0.
 DE(Z)  -0.14922820D+00          E(Z)=    -0.78451754836D+02
 NORM(A)=   0.10406598D+01
 Iteration Nr.  12
 **********************
 DD1Dir will call FoFMem   1 times, MxPair=        56
 NAB=    28 NAA=     0 NBB=     0.
 DE(Z)  -0.14922820D+00          E(Z)=    -0.78451754833D+02
 NORM(A)=   0.10406598D+01
 Discarding MO integrals.
          IDoAtm=11111111
          Differentiating once with respect to electric field.
                with respect to dipole field.
          Differentiating once with respect to nuclear coordinates.
 Keep R1 ints in memory in symmetry-blocked form, NReq=822003.
          There are     1 degrees of freedom in the 1st order CPHF.  IDoFFX=0 NUNeed=     1.
 LinEq1:  Iter=  0 NonCon=     1 RMS=8.55D-04 Max=4.11D-03 NDo=     1
 AX will form     1 AO Fock derivatives at one time.
 LinEq1:  Iter=  1 NonCon=     1 RMS=6.97D-05 Max=2.89D-04 NDo=     1
 LinEq1:  Iter=  2 NonCon=     1 RMS=1.07D-05 Max=4.72D-05 NDo=     1
 LinEq1:  Iter=  3 NonCon=     1 RMS=4.07D-07 Max=2.11D-06 NDo=     1
 LinEq1:  Iter=  4 NonCon=     1 RMS=2.90D-08 Max=9.75D-08 NDo=     1
 LinEq1:  Iter=  5 NonCon=     1 RMS=2.33D-09 Max=9.72D-09 NDo=     1
 LinEq1:  Iter=  6 NonCon=     0 RMS=6.43D-11 Max=2.42D-10 NDo=     1
 Linear equations converged to 1.000D-10 1.000D-09 after     6 iterations.
 End of Minotr F.D. properties file   721 does not exist.
 End of Minotr F.D. properties file   722 does not exist.
 End of Minotr F.D. properties file   788 does not exist.
 Calling FoFJK, ICntrl=  10002127 FMM=F ISym2X=1 I1Cent= 0 IOpClX= 0 NMat=1 NMatS=1 NMatT=0.
 ***** Axes restored to original set *****
 -------------------------------------------------------------------
 Center     Atomic                   Forces (Hartrees/Bohr)
 Number     Number              X              Y              Z
 -------------------------------------------------------------------
      1        6          -0.000224515    0.000354983    0.000000078
      2        6           0.000224515   -0.000354983   -0.000000078
      3        1           0.000154461    0.000182216   -0.000145472
      4        1          -0.000028069    0.000066801    0.000270086
      5        1          -0.000240957   -0.000067780   -0.000124656
      6        1           0.000240957    0.000067780    0.000124656
      7        1           0.000028069   -0.000066801   -0.000270086
      8        1          -0.000154461   -0.000182216    0.000145472
 -------------------------------------------------------------------
 Cartesian Forces:  Max     0.000354983 RMS     0.000185075

 GradGradGradGradGradGradGradGradGradGradGradGradGradGradGradGradGradGrad
 Berny optimization.
 Using GEDIIS/GDIIS optimizer.
 FormGI is forming the generalized inverse of G from B-inverse, IUseBI=4.
 Internal  Forces:  Max     0.000634433 RMS     0.000193446
 Search for a local minimum.
 Step number   3 out of a maximum of   38
 All quantities printed in internal units (Hartrees-Bohrs-Radians)
 Mixed Optimization -- En-DIIS/RFO-DIIS
 Update second derivatives using D2CorX and points    1    2    3
 DE= -1.19D-04 DEPred=-1.17D-04 R= 1.01D+00
 TightC=F SS=  1.41D+00  RLast= 2.74D-02 DXNew= 6.4767D-01 8.2102D-02
 Trust test= 1.01D+00 RLast= 2.74D-02 DXMaxT set to 3.85D-01
 ITU=  1  1  0
 Use linear search instead of GDIIS.
     Eigenvalues ---    0.00280   0.05526   0.05526   0.05526   0.05526
     Eigenvalues ---    0.16000   0.16000   0.16000   0.16000   0.16000
     Eigenvalues ---    0.17014   0.32074   0.34549   0.34549   0.34549
     Eigenvalues ---    0.34549   0.34549   0.36894
 RFO step:  Lambda=-3.42882038D-06 EMin= 2.80064107D-03
 Quartic linear search produced a step of -0.04338.
 Iteration  1 RMS(Cart)=  0.00126085 RMS(Int)=  0.00000058
 Iteration  2 RMS(Cart)=  0.00000058 RMS(Int)=  0.00000004
 ClnCor:  largest displacement from symmetrization is 1.59D-08 for atom     7.
 Variable       Old X    -DE/DX   Delta X   Delta X   Delta X     New X
                                 (Linear)    (Quad)   (Total)
    R1        2.95204   0.00063   0.00080   0.00087   0.00167   2.95371
    R2        2.10116  -0.00023   0.00026  -0.00104  -0.00077   2.10038
    R3        2.10116  -0.00023   0.00026  -0.00104  -0.00077   2.10038
    R4        2.10116  -0.00023   0.00026  -0.00104  -0.00077   2.10038
    R5        2.10116  -0.00023   0.00026  -0.00104  -0.00077   2.10038
    R6        2.10116  -0.00023   0.00026  -0.00104  -0.00077   2.10038
    R7        2.10116  -0.00023   0.00026  -0.00104  -0.00077   2.10038
    A1        1.93164   0.00016   0.00017   0.00072   0.00088   1.93252
    A2        1.93164   0.00016   0.00017   0.00072   0.00088   1.93252
    A3        1.93164   0.00016   0.00017   0.00072   0.00088   1.93252
    A4        1.88917  -0.00017  -0.00018  -0.00075  -0.00092   1.88825
    A5        1.88917  -0.00017  -0.00018  -0.00075  -0.00092   1.88825
    A6        1.88917  -0.00017  -0.00018  -0.00075  -0.00092   1.88825
    A7        1.93164   0.00016   0.00017   0.00072   0.00088   1.93252
    A8        1.93164   0.00016   0.00017   0.00072   0.00088   1.93252
    A9        1.93164   0.00016   0.00017   0.00072   0.00088   1.93252
   A10        1.88917  -0.00017  -0.00018  -0.00075  -0.00092   1.88825
   A11        1.88917  -0.00017  -0.00018  -0.00075  -0.00092   1.88825
   A12        1.88917  -0.00017  -0.00018  -0.00075  -0.00092   1.88825
    D1        1.04720   0.00000   0.00000   0.00000   0.00000   1.04720
    D2       -1.04720   0.00000   0.00000   0.00000   0.00000  -1.04720
    D3        3.14159   0.00000   0.00000   0.00000   0.00000   3.14159
    D4       -1.04720   0.00000   0.00000   0.00000   0.00000  -1.04720
    D5        3.14159   0.00000   0.00000   0.00000   0.00000   3.14159
    D6        1.04720   0.00000   0.00000   0.00000   0.00000   1.04720
    D7        3.14159   0.00000   0.00000   0.00000   0.00000   3.14159
    D8        1.04720   0.00000   0.00000   0.00000   0.00000   1.04720
    D9       -1.04720   0.00000   0.00000   0.00000   0.00000  -1.04720
         Item               Value     Threshold  Converged?
 Maximum Force            0.000634     0.000450     NO 
 RMS     Force            0.000193     0.000300     YES
 Maximum Displacement     0.002563     0.001800     NO 
 RMS     Displacement     0.001261     0.001200     NO 
 Predicted change in Energy=-1.968169D-06
 GradGradGradGradGradGradGradGradGradGradGradGradGradGradGradGradGradGrad

                          Input orientation:                          
 ---------------------------------------------------------------------
 Center     Atomic      Atomic             Coordinates (Angstroms)
 Number     Number       Type             X           Y           Z
 ---------------------------------------------------------------------
      1          6           0       -1.776879    1.616196    0.000000
      2          6           0       -0.941301    0.295254    0.000000
      3          1           0       -2.727754    1.480134    0.559197
      4          1           0       -2.026121    1.923960   -1.038526
      5          1           0       -1.207580    2.441738    0.479330
      6          1           0       -1.510600   -0.530288   -0.479330
      7          1           0       -0.692059   -0.012510    1.038526
      8          1           0        0.009574    0.431316   -0.559197
 ---------------------------------------------------------------------
                    Distance matrix (angstroms):
                    1          2          3          4          5
     1  C    0.000000
     2  C    1.563036   0.000000
     3  H    1.111475   2.215414   0.000000
     4  H    1.111475   2.215414   1.800553   0.000000
     5  H    1.111475   2.215414   1.800553   1.800553   0.000000
     6  H    2.215414   1.111475   2.569397   2.569397   3.137481
     7  H    2.215414   1.111475   2.569397   3.137481   2.569397
     8  H    2.215414   1.111475   3.137481   2.569397   2.569397
                    6          7          8
     6  H    0.000000
     7  H    1.800553   0.000000
     8  H    1.800553   1.800553   0.000000
 This structure is nearly, but not quite of a higher symmetry.
 Consider Symm=Loose if the higher symmetry is desired.
 Stoichiometry    C2H6
 Framework group  CI[X(C2H6)]
 Deg. of freedom     9
 Full point group                 CI      NOp   2
 Largest Abelian subgroup         CI      NOp   2
 Largest concise Abelian subgroup CI      NOp   2
                         Standard orientation:                         
 ---------------------------------------------------------------------
 Center     Atomic      Atomic             Coordinates (Angstroms)
 Number     Number       Type             X           Y           Z
 ---------------------------------------------------------------------
      1          6           0       -0.417789    0.660471    0.000000
      2          6           0        0.417789   -0.660471    0.000000
      3          1           0       -1.368664    0.524409    0.559197
      4          1           0       -0.667031    0.968235   -1.038526
      5          1           0        0.151510    1.486013    0.479330
      6          1           0       -0.151510   -1.486013   -0.479330
      7          1           0        0.667031   -0.968235    1.038526
      8          1           0        1.368664   -0.524409   -0.559197
 ---------------------------------------------------------------------
 Rotational constants (GHZ):     77.3375392     19.2361553     19.2361551
 Standard basis: STO-3G (5D, 7F)
 There are     8 symmetry adapted cartesian basis functions of AG  symmetry.
 There are     8 symmetry adapted cartesian basis functions of AU  symmetry.
 There are     8 symmetry adapted basis functions of AG  symmetry.
 There are     8 symmetry adapted basis functions of AU  symmetry.
    16 basis functions,    48 primitive gaussians,    16 cartesian basis functions
     9 alpha electrons        9 beta electrons
       nuclear repulsion energy        41.4318996901 Hartrees.
 NAtoms=    8 NActive=    8 NUniq=    4 SFac= 4.00D+00 NAtFMM=   60 NAOKFM=F Big=F
 Integral buffers will be    131072 words long.
 Raffenetti 1 integral format.
 Two-electron integral symmetry is turned on.
 One-electron integrals computed using PRISM.
 NBasis=    16 RedAO= T EigKep=  1.56D-01  NBF=     8     8
 NBsUse=    16 1.00D-06 EigRej= -1.00D+00 NBFU=     8     8
 Initial guess from the checkpoint file:  "/scr/Gau-24135.chk"
 B after Tr=     0.000000    0.000000    0.000000
         Rot=    1.000000    0.000000    0.000000    0.000000 Ang=   0.00 deg.
 Initial guess orbital symmetries:
       Occupied  (AU) (AG) (AG) (AU) (AU) (AU) (AG) (AG) (AG)
       Virtual   (AG) (AG) (AG) (AU) (AU) (AU) (AU)
 Keep R1 ints in memory in symmetry-blocked form, NReq=838434.
 Requested convergence on RMS density matrix=1.00D-08 within 128 cycles.
 Requested convergence on MAX density matrix=1.00D-06.
 Requested convergence on             energy=1.00D-06.
 No special actions if energy rises.
 SCF Done:  E(RHF) =  -78.3025935990     A.U. after    6 cycles
            NFock=  6  Conv=0.14D-09     -V/T= 2.0099
 ExpMin= 1.69D-01 ExpMax= 7.16D+01 ExpMxC= 7.16D+01 IAcc=3 IRadAn=         5 AccDes= 0.00D+00
 HarFok:  IExCor=  205 AccDes= 0.00D+00 IRadAn=         5 IDoV=-2 UseB2=F ITyADJ=14
 ICtDFT= 12500011 ScaDFX=  1.000000  1.000000  1.000000  1.000000
 Range of M.O.s used for correlation:     3    16
 NBasis=    16 NAE=     9 NBE=     9 NFC=     2 NFV=     0
 NROrb=     14 NOA=     7 NOB=     7 NVA=     7 NVB=     7
 Semi-Direct transformation.
 ModeAB=           4 MOrb=             7 LenV=      33439920
 LASXX=         2581 LTotXX=        2581 LenRXX=        5950
 LTotAB=        3369 MaxLAS=        8232 LenRXY=           0
 NonZer=        8531 LenScr=      785920 LnRSAI=        8232
 LnScr1=      785920 LExtra=           0 Total=      1586022
 MaxDsk=          -1 SrtSym=           T ITran=            4
 JobTyp=0 Pass  1:  I=   1 to   7.
 (rs|ai) integrals will be sorted in core.
 Spin components of T(2) and E(2):
     alpha-alpha T2 =       0.1687041423D-02 E2=     -0.4396010808D-02
     alpha-beta  T2 =       0.4000345627D-01 E2=     -0.1016052977D+00
     beta-beta   T2 =       0.1687041423D-02 E2=     -0.4396010808D-02
 ANorm=    0.1021458535D+01
 E2 =    -0.1103973193D+00 EUMP2 =    -0.78412990918304D+02
 Keep R2 and R3 ints in memory in symmetry-blocked form, NReq=811030.
 Iterations=  50 Convergence= 0.100D-07
 Iteration Nr.   1
 **********************
 DD1Dir will call FoFMem   1 times, MxPair=        56
 NAB=    28 NAA=     0 NBB=     0.
 MP4(R+Q)=  0.57953770D-03
 E3=       -0.27510692D-01        EUMP3=      -0.78440501610D+02
 E4(DQ)=   -0.85055262D-02        UMP4(DQ)=   -0.78449007137D+02
 E4(SDQ)=  -0.85218864D-02        UMP4(SDQ)=  -0.78449023497D+02
 DE(Corr)= -0.13732753     E(Corr)=     -78.439921131    
 NORM(A)=   0.10381001D+01
 Iteration Nr.   2
 **********************
 DD1Dir will call FoFMem   1 times, MxPair=        56
 NAB=    28 NAA=     0 NBB=     0.
 DE(Corr)= -0.14853160     E(CORR)=     -78.451125197     Delta=-1.12D-02
 NORM(A)=   0.10413714D+01
 Iteration Nr.   3
 **********************
 DD1Dir will call FoFMem   1 times, MxPair=        56
 NAB=    28 NAA=     0 NBB=     0.
 DE(Corr)= -0.15088047     E(CORR)=     -78.453474068     Delta=-2.35D-03
 NORM(A)=   0.10416437D+01
 Iteration Nr.   4
 **********************
 DD1Dir will call FoFMem   1 times, MxPair=        56
 NAB=    28 NAA=     0 NBB=     0.
 DE(Corr)= -0.15107916     E(CORR)=     -78.453672759     Delta=-1.99D-04
 NORM(A)=   0.10416537D+01
 Iteration Nr.   5
 **********************
 DD1Dir will call FoFMem   1 times, MxPair=        56
 NAB=    28 NAA=     0 NBB=     0.
 DE(Corr)= -0.15108668     E(CORR)=     -78.453680279     Delta=-7.52D-06
 NORM(A)=   0.10416504D+01
 Iteration Nr.   6
 **********************
 DD1Dir will call FoFMem   1 times, MxPair=        56
 NAB=    28 NAA=     0 NBB=     0.
 DE(Corr)= -0.15108508     E(CORR)=     -78.453678678     Delta= 1.60D-06
 NORM(A)=   0.10416512D+01
 Iteration Nr.   7
 **********************
 DD1Dir will call FoFMem   1 times, MxPair=        56
 NAB=    28 NAA=     0 NBB=     0.
 DE(Corr)= -0.15108553     E(CORR)=     -78.453679128     Delta=-4.50D-07
 NORM(A)=   0.10416513D+01
 Iteration Nr.   8
 **********************
 DD1Dir will call FoFMem   1 times, MxPair=        56
 NAB=    28 NAA=     0 NBB=     0.
 DE(Corr)= -0.15108559     E(CORR)=     -78.453679190     Delta=-6.18D-08
 NORM(A)=   0.10416513D+01
 Iteration Nr.   9
 **********************
 DD1Dir will call FoFMem   1 times, MxPair=        56
 NAB=    28 NAA=     0 NBB=     0.
 DE(Corr)= -0.15108555     E(CORR)=     -78.453679151     Delta= 3.91D-08
 NORM(A)=   0.10416512D+01
 Iteration Nr.  10
 **********************
 DD1Dir will call FoFMem   1 times, MxPair=        56
 NAB=    28 NAA=     0 NBB=     0.
 DE(Corr)= -0.15108553     E(CORR)=     -78.453679133     Delta= 1.74D-08
 NORM(A)=   0.10416512D+01
 Iteration Nr.  11
 **********************
 DD1Dir will call FoFMem   1 times, MxPair=        56
 NAB=    28 NAA=     0 NBB=     0.
 DE(Corr)= -0.15108553     E(CORR)=     -78.453679128     Delta= 5.06D-09
 NORM(A)=   0.10416512D+01
 Largest amplitude= 7.94D-02

 Z-AMPLITUDE ITERATIONS

 Iteration Nr.   1
 **********************
 DD1Dir will call FoFMem   1 times, MxPair=        56
 NAB=    28 NAA=     0 NBB=     0.
 DE(Z)  -0.14963307D+00          E(Z)=    -0.78452226667D+02
 NORM(A)=   0.10416512D+01
 Iteration Nr.   2
 **********************
 DD1Dir will call FoFMem   1 times, MxPair=        56
 NAB=    28 NAA=     0 NBB=     0.
 DE(Z)  -0.14963305D+00          E(Z)=    -0.78452226652D+02
 NORM(A)=   0.10416512D+01
 Iteration Nr.   3
 **********************
 DD1Dir will call FoFMem   1 times, MxPair=        56
 NAB=    28 NAA=     0 NBB=     0.
 DE(Z)  -0.14963305D+00          E(Z)=    -0.78452226653D+02
 NORM(A)=   0.10416512D+01
 Iteration Nr.   4
 **********************
 DD1Dir will call FoFMem   1 times, MxPair=        56
 NAB=    28 NAA=     0 NBB=     0.
 DE(Z)  -0.14963305D+00          E(Z)=    -0.78452226652D+02
 NORM(A)=   0.10416512D+01
 Iteration Nr.   5
 **********************
 DD1Dir will call FoFMem   1 times, MxPair=        56
 NAB=    28 NAA=     0 NBB=     0.
 DE(Z)  -0.14963306D+00          E(Z)=    -0.78452226657D+02
 NORM(A)=   0.10406208D+01
 Iteration Nr.   6
 **********************
 DD1Dir will call FoFMem   1 times, MxPair=        56
 NAB=    28 NAA=     0 NBB=     0.
 DE(Z)  -0.14915697D+00          E(Z)=    -0.78451750564D+02
 NORM(A)=   0.10406290D+01
 Iteration Nr.   7
 **********************
 DD1Dir will call FoFMem   1 times, MxPair=        56
 NAB=    28 NAA=     0 NBB=     0.
 DE(Z)  -0.14916250D+00          E(Z)=    -0.78451756098D+02
 NORM(A)=   0.10406325D+01
 Iteration Nr.   8
 **********************
 DD1Dir will call FoFMem   1 times, MxPair=        56
 NAB=    28 NAA=     0 NBB=     0.
 DE(Z)  -0.14916491D+00          E(Z)=    -0.78451758508D+02
 NORM(A)=   0.10406326D+01
 Iteration Nr.   9
 **********************
 DD1Dir will call FoFMem   1 times, MxPair=        56
 NAB=    28 NAA=     0 NBB=     0.
 DE(Z)  -0.14916490D+00          E(Z)=    -0.78451758503D+02
 NORM(A)=   0.10406326D+01
 Iteration Nr.  10
 **********************
 DD1Dir will call FoFMem   1 times, MxPair=        56
 NAB=    28 NAA=     0 NBB=     0.
 DE(Z)  -0.14916489D+00          E(Z)=    -0.78451758494D+02
 NORM(A)=   0.10406326D+01
 Iteration Nr.  11
 **********************
 DD1Dir will call FoFMem   1 times, MxPair=        56
 NAB=    28 NAA=     0 NBB=     0.
 DE(Z)  -0.14916490D+00          E(Z)=    -0.78451758495D+02
 NORM(A)=   0.10406326D+01
 Discarding MO integrals.
          IDoAtm=11111111
          Differentiating once with respect to electric field.
                with respect to dipole field.
          Differentiating once with respect to nuclear coordinates.
 Keep R1 ints in memory in symmetry-blocked form, NReq=822003.
          There are     1 degrees of freedom in the 1st order CPHF.  IDoFFX=0 NUNeed=     1.
 LinEq1:  Iter=  0 NonCon=     1 RMS=8.55D-04 Max=4.10D-03 NDo=     1
 AX will form     1 AO Fock derivatives at one time.
 LinEq1:  Iter=  1 NonCon=     1 RMS=6.95D-05 Max=2.86D-04 NDo=     1
 LinEq1:  Iter=  2 NonCon=     1 RMS=1.07D-05 Max=4.69D-05 NDo=     1
 LinEq1:  Iter=  3 NonCon=     1 RMS=4.06D-07 Max=2.11D-06 NDo=     1
 LinEq1:  Iter=  4 NonCon=     1 RMS=2.87D-08 Max=9.61D-08 NDo=     1
 LinEq1:  Iter=  5 NonCon=     1 RMS=2.31D-09 Max=9.58D-09 NDo=     1
 LinEq1:  Iter=  6 NonCon=     0 RMS=6.39D-11 Max=2.42D-10 NDo=     1
 Linear equations converged to 1.000D-10 1.000D-09 after     6 iterations.
 End of Minotr F.D. properties file   721 does not exist.
 End of Minotr F.D. properties file   722 does not exist.
 End of Minotr F.D. properties file   788 does not exist.
 Calling FoFJK, ICntrl=  10002127 FMM=F ISym2X=1 I1Cent= 0 IOpClX= 0 NMat=1 NMatS=1 NMatT=0.
 ***** Axes restored to original set *****
 -------------------------------------------------------------------
 Center     Atomic                   Forces (Hartrees/Bohr)
 Number     Number              X              Y              Z
 -------------------------------------------------------------------
      1        6           0.000081008   -0.000128072   -0.000000013
      2        6          -0.000081008    0.000128072    0.000000013
      3        1          -0.000077200   -0.000037988    0.000054593
      4        1          -0.000008696    0.000005337   -0.000101368
      5        1           0.000071199    0.000055850    0.000046778
      6        1          -0.000071199   -0.000055850   -0.000046778
      7        1           0.000008696   -0.000005337    0.000101368
      8        1           0.000077200    0.000037988   -0.000054593
 -------------------------------------------------------------------
 Cartesian Forces:  Max     0.000128072 RMS     0.000067147

 GradGradGradGradGradGradGradGradGradGradGradGradGradGradGradGradGradGrad
 Berny optimization.
 Using GEDIIS/GDIIS optimizer.
 FormGI is forming the generalized inverse of G from B-inverse, IUseBI=4.
 Internal  Forces:  Max     0.000124078 RMS     0.000054330
 Search for a local minimum.
 Step number   4 out of a maximum of   38
 All quantities printed in internal units (Hartrees-Bohrs-Radians)
 Mixed Optimization -- En-DIIS/RFO-DIIS
 Swapping is turned off.
 Update second derivatives using D2CorX and points    1    2    3    4
 DE= -1.48D-06 DEPred=-1.97D-06 R= 7.51D-01
 TightC=F SS=  1.41D+00  RLast= 4.02D-03 DXNew= 6.4767D-01 1.2064D-02
 Trust test= 7.51D-01 RLast= 4.02D-03 DXMaxT set to 3.85D-01
 ITU=  1  1  1  0
     Eigenvalues ---    0.00280   0.05516   0.05516   0.05516   0.05516
     Eigenvalues ---    0.16000   0.16000   0.16000   0.16000   0.16000
     Eigenvalues ---    0.17498   0.34549   0.34549   0.34549   0.34549
     Eigenvalues ---    0.34549   0.36672   0.40014
 En-DIIS/RFO-DIIS IScMMF=        0 using points:     4    3
 RFO step:  Lambda=-1.33428393D-07.
 DidBck=F Rises=F RFO-DIIS coefs:    0.80231    0.19769
 Iteration  1 RMS(Cart)=  0.00020079 RMS(Int)=  0.00000005
 Iteration  2 RMS(Cart)=  0.00000002 RMS(Int)=  0.00000005
 ClnCor:  largest displacement from symmetrization is 6.58D-09 for atom     8.
 Variable       Old X    -DE/DX   Delta X   Delta X   Delta X     New X
                                 (Linear)    (Quad)   (Total)
    R1        2.95371  -0.00012  -0.00033   0.00005  -0.00028   2.95343
    R2        2.10038   0.00010   0.00015   0.00009   0.00024   2.10062
    R3        2.10038   0.00010   0.00015   0.00009   0.00024   2.10062
    R4        2.10038   0.00010   0.00015   0.00009   0.00024   2.10062
    R5        2.10038   0.00010   0.00015   0.00009   0.00024   2.10062
    R6        2.10038   0.00010   0.00015   0.00009   0.00024   2.10062
    R7        2.10038   0.00010   0.00015   0.00009   0.00024   2.10062
    A1        1.93252  -0.00003  -0.00017   0.00005  -0.00012   1.93240
    A2        1.93252  -0.00003  -0.00017   0.00005  -0.00012   1.93240
    A3        1.93252  -0.00003  -0.00017   0.00005  -0.00012   1.93240
    A4        1.88825   0.00003   0.00018  -0.00006   0.00013   1.88837
    A5        1.88825   0.00003   0.00018  -0.00006   0.00012   1.88837
    A6        1.88825   0.00003   0.00018  -0.00006   0.00012   1.88837
    A7        1.93252  -0.00003  -0.00017   0.00005  -0.00012   1.93240
    A8        1.93252  -0.00003  -0.00017   0.00005  -0.00012   1.93240
    A9        1.93252  -0.00003  -0.00017   0.00005  -0.00012   1.93240
   A10        1.88825   0.00003   0.00018  -0.00006   0.00012   1.88837
   A11        1.88825   0.00003   0.00018  -0.00006   0.00012   1.88837
   A12        1.88825   0.00003   0.00018  -0.00006   0.00013   1.88837
    D1        1.04720   0.00000   0.00000   0.00000   0.00000   1.04720
    D2       -1.04720   0.00000   0.00000   0.00000   0.00000  -1.04720
    D3        3.14159   0.00000   0.00000   0.00000   0.00000   3.14159
    D4       -1.04720   0.00000   0.00000   0.00000   0.00000  -1.04720
    D5        3.14159   0.00000   0.00000   0.00000   0.00000   3.14159
    D6        1.04720   0.00000   0.00000   0.00000   0.00000   1.04720
    D7        3.14159   0.00000   0.00000   0.00000   0.00000   3.14159
    D8        1.04720   0.00000   0.00000   0.00000   0.00000   1.04720
    D9       -1.04720   0.00000   0.00000   0.00000   0.00000  -1.04720
         Item               Value     Threshold  Converged?
 Maximum Force            0.000124     0.000450     YES
 RMS     Force            0.000054     0.000300     YES
 Maximum Displacement     0.000390     0.001800     YES
 RMS     Displacement     0.000201     0.001200     YES
 Predicted change in Energy=-1.087326D-07
 Optimization completed.
    -- Stationary point found.
                           ----------------------------
                           !   Optimized Parameters   !
                           ! (Angstroms and Degrees)  !
 --------------------------                            --------------------------
 ! Name  Definition              Value          Derivative Info.                !
 --------------------------------------------------------------------------------
 ! R1    R(1,2)                  1.563          -DE/DX =   -0.0001              !
 ! R2    R(1,3)                  1.1115         -DE/DX =    0.0001              !
 ! R3    R(1,4)                  1.1115         -DE/DX =    0.0001              !
 ! R4    R(1,5)                  1.1115         -DE/DX =    0.0001              !
 ! R5    R(2,6)                  1.1115         -DE/DX =    0.0001              !
 ! R6    R(2,7)                  1.1115         -DE/DX =    0.0001              !
 ! R7    R(2,8)                  1.1115         -DE/DX =    0.0001              !
 ! A1    A(2,1,3)              110.7253         -DE/DX =    0.0                 !
 ! A2    A(2,1,4)              110.7253         -DE/DX =    0.0                 !
 ! A3    A(2,1,5)              110.7253         -DE/DX =    0.0                 !
 ! A4    A(3,1,4)              108.1886         -DE/DX =    0.0                 !
 ! A5    A(3,1,5)              108.1886         -DE/DX =    0.0                 !
 ! A6    A(4,1,5)              108.1886         -DE/DX =    0.0                 !
 ! A7    A(1,2,6)              110.7253         -DE/DX =    0.0                 !
 ! A8    A(1,2,7)              110.7253         -DE/DX =    0.0                 !
 ! A9    A(1,2,8)              110.7253         -DE/DX =    0.0                 !
 ! A10   A(6,2,7)              108.1886         -DE/DX =    0.0                 !
 ! A11   A(6,2,8)              108.1886         -DE/DX =    0.0                 !
 ! A12   A(7,2,8)              108.1886         -DE/DX =    0.0                 !
 ! D1    D(3,1,2,6)             60.0            -DE/DX =    0.0                 !
 ! D2    D(3,1,2,7)            -60.0            -DE/DX =    0.0                 !
 ! D3    D(3,1,2,8)            180.0            -DE/DX =    0.0                 !
 ! D4    D(4,1,2,6)            -60.0            -DE/DX =    0.0                 !
 ! D5    D(4,1,2,7)            180.0            -DE/DX =    0.0                 !
 ! D6    D(4,1,2,8)             60.0            -DE/DX =    0.0                 !
 ! D7    D(5,1,2,6)            180.0            -DE/DX =    0.0                 !
 ! D8    D(5,1,2,7)             60.0            -DE/DX =    0.0                 !
 ! D9    D(5,1,2,8)            -60.0            -DE/DX =    0.0                 !
 --------------------------------------------------------------------------------
 GradGradGradGradGradGradGradGradGradGradGradGradGradGradGradGradGradGrad

                          Input orientation:                          
 ---------------------------------------------------------------------
 Center     Atomic      Atomic             Coordinates (Angstroms)
 Number     Number       Type             X           Y           Z
 ---------------------------------------------------------------------
      1          6           0       -1.776879    1.616196    0.000000
      2          6           0       -0.941301    0.295254    0.000000
      3          1           0       -2.727754    1.480134    0.559197
      4          1           0       -2.026121    1.923960   -1.038526
      5          1           0       -1.207580    2.441738    0.479330
      6          1           0       -1.510600   -0.530288   -0.479330
      7          1           0       -0.692059   -0.012510    1.038526
      8          1           0        0.009574    0.431316   -0.559197
 ---------------------------------------------------------------------
                    Distance matrix (angstroms):
                    1          2          3          4          5
     1  C    0.000000
     2  C    1.563036   0.000000
     3  H    1.111475   2.215414   0.000000
     4  H    1.111475   2.215414   1.800553   0.000000
     5  H    1.111475   2.215414   1.800553   1.800553   0.000000
     6  H    2.215414   1.111475   2.569397   2.569397   3.137481
     7  H    2.215414   1.111475   2.569397   3.137481   2.569397
     8  H    2.215414   1.111475   3.137481   2.569397   2.569397
                    6          7          8
     6  H    0.000000
     7  H    1.800553   0.000000
     8  H    1.800553   1.800553   0.000000
 This structure is nearly, but not quite of a higher symmetry.
 Consider Symm=Loose if the higher symmetry is desired.
 Stoichiometry    C2H6
 Framework group  CI[X(C2H6)]
 Deg. of freedom     9
 Full point group                 CI      NOp   2
 Largest Abelian subgroup         CI      NOp   2
 Largest concise Abelian subgroup CI      NOp   2
                         Standard orientation:                         
 ---------------------------------------------------------------------
 Center     Atomic      Atomic             Coordinates (Angstroms)
 Number     Number       Type             X           Y           Z
 ---------------------------------------------------------------------
      1          6           0       -0.417789    0.660471    0.000000
      2          6           0        0.417789   -0.660471    0.000000
      3          1           0       -1.368664    0.524409    0.559197
      4          1           0       -0.667031    0.968235   -1.038526
      5          1           0        0.151510    1.486013    0.479330
      6          1           0       -0.151510   -1.486013   -0.479330
      7          1           0        0.667031   -0.968235    1.038526
      8          1           0        1.368664   -0.524409   -0.559197
 ---------------------------------------------------------------------
 Rotational constants (GHZ):     77.3375392     19.2361553     19.2361551

 **********************************************************************

            Population analysis using the SCF density.

 **********************************************************************

 Orbital symmetries:
       Occupied  (AU) (AG) (AG) (AU) (AU) (AU) (AG) (AG) (AG)
       Virtual   (AU) (AU) (AU) (AG) (AU) (AG) (AG)
 The electronic state is 1-AG.
 Alpha  occ. eigenvalues --  -11.03760 -11.03725  -0.96642  -0.80107  -0.55952
 Alpha  occ. eigenvalues --   -0.55952  -0.46201  -0.45333  -0.45333
 Alpha virt. eigenvalues --    0.63543   0.63543   0.66550   0.70558   0.74120
 Alpha virt. eigenvalues --    0.76327   0.76327
          Condensed to atoms (all electrons):
               1          2          3          4          5          6
     1  C    4.719751   0.357647   0.378855   0.378855   0.378855  -0.019210
     2  C    0.357647   4.719751  -0.019210  -0.019210  -0.019210   0.378855
     3  H    0.378855  -0.019210   0.632278  -0.020995  -0.020995  -0.001804
     4  H    0.378855  -0.019210  -0.020995   0.632278  -0.020995  -0.001804
     5  H    0.378855  -0.019210  -0.020995  -0.020995   0.632278   0.001564
     6  H   -0.019210   0.378855  -0.001804  -0.001804   0.001564   0.632278
     7  H   -0.019210   0.378855  -0.001804   0.001564  -0.001804  -0.020995
     8  H   -0.019210   0.378855   0.001564  -0.001804  -0.001804  -0.020995
               7          8
     1  C   -0.019210  -0.019210
     2  C    0.378855   0.378855
     3  H   -0.001804   0.001564
     4  H    0.001564  -0.001804
     5  H   -0.001804  -0.001804
     6  H   -0.020995  -0.020995
     7  H    0.632278  -0.020995
     8  H   -0.020995   0.632278
 Mulliken charges:
               1
     1  C   -0.156334
     2  C   -0.156334
     3  H    0.052111
     4  H    0.052111
     5  H    0.052111
     6  H    0.052111
     7  H    0.052111
     8  H    0.052111
 Sum of Mulliken charges =   0.00000
 Mulliken charges with hydrogens summed into heavy atoms:
               1
     1  C    0.000000
     2  C    0.000000
 Electronic spatial extent (au):  <R**2>=            110.4997
 Charge=              0.0000 electrons
 Dipole moment (field-independent basis, Debye):
    X=              0.0000    Y=              0.0000    Z=              0.0000  Tot=              0.0000
 Quadrupole moment (field-independent basis, Debye-Ang):
   XX=            -14.1483   YY=            -14.3121   ZZ=            -14.0390
   XY=              0.1728   XZ=              0.0000   YZ=              0.0000
 Traceless Quadrupole moment (field-independent basis, Debye-Ang):
   XX=              0.0182   YY=             -0.1457   ZZ=              0.1275
   XY=              0.1728   XZ=              0.0000   YZ=              0.0000
 Octapole moment (field-independent basis, Debye-Ang**2):
  XXX=              0.0000  YYY=              0.0000  ZZZ=              0.0000  XYY=              0.0000
  XXY=              0.0000  XXZ=              0.0000  XZZ=              0.0000  YZZ=              0.0000
  YYZ=              0.0000  XYZ=              0.0000
 Hexadecapole moment (field-independent basis, Debye-Ang**3):
 XXXX=            -42.1964 YYYY=            -68.6262 ZZZZ=            -25.6215 XXXY=             13.3804
 XXXZ=             -1.4051 YYYX=             14.8735 YYYZ=              0.8888 ZZZX=              0.6558
 ZZZY=             -1.0367 XXYY=            -19.1427 XXZZ=            -11.0215 YYZZ=            -15.2604
 XXYZ=              0.1479 YYXZ=              0.7493 ZZXY=              4.0865
 N-N= 4.143189969006D+01 E-N=-2.643436887889D+02  KE= 7.753478059035D+01
 Symmetry AG   KE= 4.030429149308D+01
 Symmetry AU   KE= 3.723048909727D+01
 1\1\GINC-N0298\FOpt\RCCSD-FC\STO-3G\C2H6\TAIYUPAN\23-Feb-2017\0\\#n CC
 SD/STO-3G Opt\\CH3_CCSD/STO-3G\\0,1\C,-1.7768790967,1.6161963575,0.000
 0001654\C,-0.9413009033,0.2952536425,-0.0000001654\H,-2.7277539537,1.4
 801337928,0.559197211\H,-2.0261214828,1.923960265,-1.0385262006\H,-1.2
 075801648,2.4417382304,0.4793296872\H,-1.5105998352,-0.5302882304,-0.4
 793296872\H,-0.6920585172,-0.012510265,1.0385262006\H,0.0095739537,0.4
 313162072,-0.559197211\\Version=ES64L-G09RevE.01\State=1-AG\HF=-78.302
 5936\MP2=-78.4129909\MP3=-78.4405016\MP4D=-78.4495867\MP4DQ=-78.449007
 1\MP4SDQ=-78.4490235\CCSD=-78.4536791\RMSD=1.418e-10\RMSF=6.715e-05\Di
 pole=0.,0.,0.\PG=CI [X(C2H6)]\\@


 HAPPINESS IS NOT HAVING WHAT YOU WANT --
 HAPPINESS IS WANTING WHAT YOU HAVE!

              -- FROM MRS. SEVERN'S DESK
 Job cpu time:       0 days  0 hours  1 minutes  2.4 seconds.
 File lengths (MBytes):  RWF=     18 Int=      0 D2E=      0 Chk=      1 Scr=      1
 Normal termination of Gaussian 09 at Thu Feb 23 18:27:24 2017.
