 Entering Gaussian System, Link 0=g09
 Input=CH3_MX_S.com
 Output=CH3_MX_S.log
 Initial command:
 /sw/contrib/gaussian/g09/E01/g09/l1.exe "/scr/Gau-25884.inp" -scrdir="/scr/"
 Entering Link 1 = /sw/contrib/gaussian/g09/E01/g09/l1.exe PID=     25885.
  
 Copyright (c) 1988,1990,1992,1993,1995,1998,2003,2009,2015,
            Gaussian, Inc.  All Rights Reserved.
  
 This is part of the Gaussian(R) 09 program.  It is based on
 the Gaussian(R) 03 system (copyright 2003, Gaussian, Inc.),
 the Gaussian(R) 98 system (copyright 1998, Gaussian, Inc.),
 the Gaussian(R) 94 system (copyright 1995, Gaussian, Inc.),
 the Gaussian 92(TM) system (copyright 1992, Gaussian, Inc.),
 the Gaussian 90(TM) system (copyright 1990, Gaussian, Inc.),
 the Gaussian 88(TM) system (copyright 1988, Gaussian, Inc.),
 the Gaussian 86(TM) system (copyright 1986, Carnegie Mellon
 University), and the Gaussian 82(TM) system (copyright 1983,
 Carnegie Mellon University). Gaussian is a federally registered
 trademark of Gaussian, Inc.
  
 This software contains proprietary and confidential information,
 including trade secrets, belonging to Gaussian, Inc.
  
 This software is provided under written license and may be
 used, copied, transmitted, or stored only in accord with that
 written license.
  
 The following legend is applicable only to US Government
 contracts under FAR:
  
                    RESTRICTED RIGHTS LEGEND
  
 Use, reproduction and disclosure by the US Government is
 subject to restrictions as set forth in subparagraphs (a)
 and (c) of the Commercial Computer Software - Restricted
 Rights clause in FAR 52.227-19.
  
 Gaussian, Inc.
 340 Quinnipiac St., Bldg. 40, Wallingford CT 06492
  
  
 ---------------------------------------------------------------
 Warning -- This program may not be used in any manner that
 competes with the business of Gaussian, Inc. or will provide
 assistance to any competitor of Gaussian, Inc.  The licensee
 of this program is prohibited from giving any competitor of
 Gaussian, Inc. access to this program.  By using this program,
 the user acknowledges that Gaussian, Inc. is engaged in the
 business of creating and licensing software in the field of
 computational chemistry and represents and warrants to the
 licensee that it is not a competitor of Gaussian, Inc. and that
 it will not use this program in any manner prohibited above.
 ---------------------------------------------------------------
  

 Cite this work as:
 Gaussian 09, Revision E.01,
 M. J. Frisch, G. W. Trucks, H. B. Schlegel, G. E. Scuseria, 
 M. A. Robb, J. R. Cheeseman, G. Scalmani, V. Barone, B. Mennucci, 
 G. A. Petersson, H. Nakatsuji, M. Caricato, X. Li, H. P. Hratchian, 
 A. F. Izmaylov, J. Bloino, G. Zheng, J. L. Sonnenberg, M. Hada, 
 M. Ehara, K. Toyota, R. Fukuda, J. Hasegawa, M. Ishida, T. Nakajima, 
 Y. Honda, O. Kitao, H. Nakai, T. Vreven, J. A. Montgomery, Jr., 
 J. E. Peralta, F. Ogliaro, M. Bearpark, J. J. Heyd, E. Brothers, 
 K. N. Kudin, V. N. Staroverov, T. Keith, R. Kobayashi, J. Normand, 
 K. Raghavachari, A. Rendell, J. C. Burant, S. S. Iyengar, J. Tomasi, 
 M. Cossi, N. Rega, J. M. Millam, M. Klene, J. E. Knox, J. B. Cross, 
 V. Bakken, C. Adamo, J. Jaramillo, R. Gomperts, R. E. Stratmann, 
 O. Yazyev, A. J. Austin, R. Cammi, C. Pomelli, J. W. Ochterski, 
 R. L. Martin, K. Morokuma, V. G. Zakrzewski, G. A. Voth, 
 P. Salvador, J. J. Dannenberg, S. Dapprich, A. D. Daniels, 
 O. Farkas, J. B. Foresman, J. V. Ortiz, J. Cioslowski, 
 and D. J. Fox, Gaussian, Inc., Wallingford CT, 2013.
 
 ******************************************
 Gaussian 09:  ES64L-G09RevE.01 30-Nov-2015
                23-Feb-2017 
 ******************************************
 %NProcShared=8
 Will use up to    8 processors via shared memory.
 -------------------
 #n M062X/STO-3G Opt
 -------------------
 1/14=-1,18=20,19=15,26=3,38=1/1,3;
 2/9=110,12=2,17=6,18=5,40=1/2;
 3/6=3,11=2,16=1,25=1,30=1,71=1,74=-55/1,2,3;
 4//1;
 5/5=2,38=5/2;
 6/7=2,8=2,9=2,10=2,28=1/1;
 7//1,2,3,16;
 1/14=-1,18=20,19=15,26=3/3(2);
 2/9=110/2;
 99//99;
 2/9=110/2;
 3/6=3,11=2,16=1,25=1,30=1,71=1,74=-55/1,2,3;
 4/5=5,16=3,69=1/1;
 5/5=2,38=5/2;
 7//1,2,3,16;
 1/14=-1,18=20,19=15,26=3/3(-5);
 2/9=110/2;
 6/7=2,8=2,9=2,10=2,19=2,28=1/1;
 99/9=1/99;
 ----------------
 CH3_M062X/STO-3G
 ----------------
 Symbolic Z-matrix:
 Charge =  0 Multiplicity = 1
 C                    -1.76985   1.60508   0. 
 C                    -0.94833   0.30637   0. 
 H                    -2.70278   1.46556   0.5507 
 H                    -2.01181   1.90264  -1.02275 
 H                    -1.2057    2.41255   0.47205 
 H                    -1.51248  -0.5011   -0.47205 
 H                    -0.70637   0.00881   1.02275 
 H                    -0.0154    0.44589  -0.5507 
 

 GradGradGradGradGradGradGradGradGradGradGradGradGradGradGradGradGradGrad
 Berny optimization.
 Initialization pass.
                           ----------------------------
                           !    Initial Parameters    !
                           ! (Angstroms and Degrees)  !
 --------------------------                            --------------------------
 ! Name  Definition              Value          Derivative Info.                !
 --------------------------------------------------------------------------------
 ! R1    R(1,2)                  1.5367         estimate D2E/DX2                !
 ! R2    R(1,3)                  1.0923         estimate D2E/DX2                !
 ! R3    R(1,4)                  1.0923         estimate D2E/DX2                !
 ! R4    R(1,5)                  1.0923         estimate D2E/DX2                !
 ! R5    R(2,6)                  1.0923         estimate D2E/DX2                !
 ! R6    R(2,7)                  1.0923         estimate D2E/DX2                !
 ! R7    R(2,8)                  1.0923         estimate D2E/DX2                !
 ! A1    A(2,1,3)              110.4046         estimate D2E/DX2                !
 ! A2    A(2,1,4)              110.4044         estimate D2E/DX2                !
 ! A3    A(2,1,5)              110.404          estimate D2E/DX2                !
 ! A4    A(3,1,4)              108.5221         estimate D2E/DX2                !
 ! A5    A(3,1,5)              108.5221         estimate D2E/DX2                !
 ! A6    A(4,1,5)              108.5224         estimate D2E/DX2                !
 ! A7    A(1,2,6)              110.404          estimate D2E/DX2                !
 ! A8    A(1,2,7)              110.4044         estimate D2E/DX2                !
 ! A9    A(1,2,8)              110.4046         estimate D2E/DX2                !
 ! A10   A(6,2,7)              108.5224         estimate D2E/DX2                !
 ! A11   A(6,2,8)              108.5221         estimate D2E/DX2                !
 ! A12   A(7,2,8)              108.5221         estimate D2E/DX2                !
 ! D1    D(3,1,2,6)             60.0001         estimate D2E/DX2                !
 ! D2    D(3,1,2,7)            -59.9999         estimate D2E/DX2                !
 ! D3    D(3,1,2,8)            180.0            estimate D2E/DX2                !
 ! D4    D(4,1,2,6)            -59.9999         estimate D2E/DX2                !
 ! D5    D(4,1,2,7)            180.0            estimate D2E/DX2                !
 ! D6    D(4,1,2,8)             59.9999         estimate D2E/DX2                !
 ! D7    D(5,1,2,6)           -180.0            estimate D2E/DX2                !
 ! D8    D(5,1,2,7)             59.9999         estimate D2E/DX2                !
 ! D9    D(5,1,2,8)            -60.0001         estimate D2E/DX2                !
 --------------------------------------------------------------------------------
 Trust Radius=3.00D-01 FncErr=1.00D-07 GrdErr=1.00D-06
 Number of steps in this run=     38 maximum allowed number of steps=    100.
 GradGradGradGradGradGradGradGradGradGradGradGradGradGradGradGradGradGrad

                          Input orientation:                          
 ---------------------------------------------------------------------
 Center     Atomic      Atomic             Coordinates (Angstroms)
 Number     Number       Type             X           Y           Z
 ---------------------------------------------------------------------
      1          6           0       -1.769850    1.605080    0.000000
      2          6           0       -0.948330    0.306370    0.000000
      3          1           0       -2.702780    1.465560    0.550700
      4          1           0       -2.011810    1.902640   -1.022750
      5          1           0       -1.205700    2.412550    0.472050
      6          1           0       -1.512480   -0.501100   -0.472050
      7          1           0       -0.706370    0.008810    1.022750
      8          1           0       -0.015400    0.445890   -0.550700
 ---------------------------------------------------------------------
                    Distance matrix (angstroms):
                    1          2          3          4          5
     1  C    0.000000
     2  C    1.536731   0.000000
     3  H    1.092289   2.173726   0.000000
     4  H    1.092293   2.173726   1.773196   0.000000
     5  H    1.092293   2.173721   1.773196   1.773203   0.000000
     6  H    2.173721   1.092293   2.516065   2.516062   3.078116
     7  H    2.173726   1.092293   2.516069   3.078122   2.516062
     8  H    2.173726   1.092289   3.078120   2.516069   2.516065
                    6          7          8
     6  H    0.000000
     7  H    1.773203   0.000000
     8  H    1.773196   1.773196   0.000000
 This structure is nearly, but not quite of a higher symmetry.
 Consider Symm=Loose if the higher symmetry is desired.
 Stoichiometry    C2H6
 Framework group  CI[X(C2H6)]
 Deg. of freedom     9
 Full point group                 CI      NOp   2
 Largest Abelian subgroup         CI      NOp   2
 Largest concise Abelian subgroup CI      NOp   2
                         Standard orientation:                         
 ---------------------------------------------------------------------
 Center     Atomic      Atomic             Coordinates (Angstroms)
 Number     Number       Type             X           Y           Z
 ---------------------------------------------------------------------
      1          6           0       -0.410760    0.649355    0.000000
      2          6           0        0.410760   -0.649355    0.000000
      3          1           0       -1.343690    0.509835    0.550700
      4          1           0       -0.652720    0.946915   -1.022750
      5          1           0        0.153390    1.456825    0.472050
      6          1           0       -0.153390   -1.456825   -0.472050
      7          1           0        0.652720   -0.946915    1.022750
      8          1           0        1.343690   -0.509835   -0.550700
 ---------------------------------------------------------------------
 Rotational constants (GHZ):     79.7420612     19.9566490     19.9566228
 Standard basis: STO-3G (5D, 7F)
 There are     8 symmetry adapted cartesian basis functions of AG  symmetry.
 There are     8 symmetry adapted cartesian basis functions of AU  symmetry.
 There are     8 symmetry adapted basis functions of AG  symmetry.
 There are     8 symmetry adapted basis functions of AU  symmetry.
    16 basis functions,    48 primitive gaussians,    16 cartesian basis functions
     9 alpha electrons        9 beta electrons
       nuclear repulsion energy        42.1696170358 Hartrees.
 NAtoms=    8 NActive=    8 NUniq=    4 SFac= 4.00D+00 NAtFMM=   60 NAOKFM=F Big=F
 Integral buffers will be    131072 words long.
 Raffenetti 2 integral format.
 Two-electron integral symmetry is turned on.
 One-electron integrals computed using PRISM.
 NBasis=    16 RedAO= T EigKep=  1.47D-01  NBF=     8     8
 NBsUse=    16 1.00D-06 EigRej= -1.00D+00 NBFU=     8     8
 ExpMin= 1.69D-01 ExpMax= 7.16D+01 ExpMxC= 7.16D+01 IAcc=1 IRadAn=         1 AccDes= 0.00D+00
 Harris functional with IExCor= 1009 and IRadAn=       1 diagonalized for initial guess.
 HarFok:  IExCor= 1009 AccDes= 0.00D+00 IRadAn=         1 IDoV= 1 UseB2=F ITyADJ=14
 ICtDFT=  3500011 ScaDFX=  1.000000  1.000000  1.000000  1.000000
 FoFCou: FMM=F IPFlag=           0 FMFlag=      100000 FMFlg1=           0
         NFxFlg=           0 DoJE=T BraDBF=F KetDBF=T FulRan=T
         wScrn=  0.000000 ICntrl=     500 IOpCl=  0 I1Cent=   200000004 NGrid=           0
         NMat0=    1 NMatS0=      1 NMatT0=    0 NMatD0=    1 NMtDS0=    0 NMtDT0=    0
 Petite list used in FoFCou.
 Initial guess orbital symmetries:
       Occupied  (AU) (AG) (AG) (AU) (AU) (AU) (AG) (AG) (AG)
       Virtual   (AU) (AU) (AU) (AG) (AG) (AG) (AU)
 The electronic state of the initial guess is 1-AG.
 Keep R1 ints in memory in symmetry-blocked form, NReq=889927.
 Requested convergence on RMS density matrix=1.00D-08 within 128 cycles.
 Requested convergence on MAX density matrix=1.00D-06.
 Requested convergence on             energy=1.00D-06.
 No special actions if energy rises.
 Integral accuracy reduced to 1.0D-05 until final iterations.
 Initial convergence to 1.0D-05 achieved.  Increase integral accuracy.
 SCF Done:  E(RM062X) =  -78.8666407779     A.U. after   11 cycles
            NFock= 11  Conv=0.13D-08     -V/T= 2.0160

 **********************************************************************

            Population analysis using the SCF density.

 **********************************************************************

 Orbital symmetries:
       Occupied  (AU) (AG) (AG) (AU) (AU) (AU) (AG) (AG) (AG)
       Virtual   (AU) (AU) (AU) (AG) (AU) (AG) (AG)
 The electronic state is 1-AG.
 Alpha  occ. eigenvalues --  -10.37193 -10.37122  -0.80925  -0.66635  -0.47283
 Alpha  occ. eigenvalues --   -0.47281  -0.38443  -0.37342  -0.37341
 Alpha virt. eigenvalues --    0.48672   0.48678   0.49254   0.55418   0.59661
 Alpha virt. eigenvalues --    0.59914   0.59918
          Condensed to atoms (all electrons):
               1          2          3          4          5          6
     1  C    4.759938   0.361005   0.383493   0.383490   0.383500  -0.020180
     2  C    0.361005   4.759938  -0.020179  -0.020181  -0.020180   0.383500
     3  H    0.383493  -0.020179   0.610671  -0.020791  -0.020790  -0.002283
     4  H    0.383490  -0.020181  -0.020791   0.610667  -0.020785  -0.002283
     5  H    0.383500  -0.020180  -0.020790  -0.020785   0.610633   0.001877
     6  H   -0.020180   0.383500  -0.002283  -0.002283   0.001877   0.610633
     7  H   -0.020181   0.383490  -0.002284   0.001877  -0.002283  -0.020785
     8  H   -0.020179   0.383493   0.001877  -0.002284  -0.002283  -0.020790
               7          8
     1  C   -0.020181  -0.020179
     2  C    0.383490   0.383493
     3  H   -0.002284   0.001877
     4  H    0.001877  -0.002284
     5  H   -0.002283  -0.002283
     6  H   -0.020785  -0.020790
     7  H    0.610667  -0.020791
     8  H   -0.020791   0.610671
 Mulliken charges:
               1
     1  C   -0.210886
     2  C   -0.210886
     3  H    0.070286
     4  H    0.070289
     5  H    0.070312
     6  H    0.070312
     7  H    0.070289
     8  H    0.070286
 Sum of Mulliken charges =   0.00000
 Mulliken charges with hydrogens summed into heavy atoms:
               1
     1  C    0.000000
     2  C    0.000000
 Electronic spatial extent (au):  <R**2>=            107.2220
 Charge=              0.0000 electrons
 Dipole moment (field-independent basis, Debye):
    X=              0.0000    Y=              0.0000    Z=              0.0000  Tot=              0.0000
 Quadrupole moment (field-independent basis, Debye-Ang):
   XX=            -13.9550   YY=            -14.1342   ZZ=            -13.8349
   XY=              0.1897   XZ=              0.0000   YZ=              0.0001
 Traceless Quadrupole moment (field-independent basis, Debye-Ang):
   XX=              0.0197   YY=             -0.1595   ZZ=              0.1398
   XY=              0.1897   XZ=              0.0000   YZ=              0.0001
 Octapole moment (field-independent basis, Debye-Ang**2):
  XXX=              0.0000  YYY=              0.0000  ZZZ=              0.0000  XYY=              0.0000
  XXY=              0.0000  XXZ=              0.0000  XZZ=              0.0000  YZZ=              0.0000
  YYZ=              0.0000  XYZ=              0.0000
 Hexadecapole moment (field-independent basis, Debye-Ang**3):
 XXXX=            -40.5044 YYYY=            -65.7804 ZZZZ=            -24.7723 XXXY=             12.7351
 XXXZ=             -1.4688 YYYX=             14.3220 YYYZ=              0.9295 ZZZX=              0.6855
 ZZZY=             -1.0836 XXYY=            -18.4310 XXZZ=            -10.5834 YYZZ=            -14.6129
 XXYZ=              0.1546 YYXZ=              0.7834 ZZXY=              3.8487
 N-N= 4.216961703580D+01 E-N=-2.659559051912D+02  KE= 7.762101153763D+01
 Symmetry AG   KE= 4.038413190792D+01
 Symmetry AU   KE= 3.723687962972D+01
 Calling FoFJK, ICntrl=      2127 FMM=F ISym2X=1 I1Cent= 0 IOpClX= 0 NMat=1 NMatS=1 NMatT=0.
 ***** Axes restored to original set *****
 -------------------------------------------------------------------
 Center     Atomic                   Forces (Hartrees/Bohr)
 Number     Number              X              Y              Z
 -------------------------------------------------------------------
      1        6           0.000508832   -0.000996409    0.000021573
      2        6          -0.000508832    0.000996409   -0.000021573
      3        1          -0.002383812    0.000542120    0.001090543
      4        1          -0.001005510    0.001419143   -0.002097475
      5        1           0.000635938    0.002450040    0.000977957
      6        1          -0.000635938   -0.002450040   -0.000977957
      7        1           0.001005510   -0.001419143    0.002097475
      8        1           0.002383812   -0.000542120   -0.001090543
 -------------------------------------------------------------------
 Cartesian Forces:  Max     0.002450040 RMS     0.001390620

 GradGradGradGradGradGradGradGradGradGradGradGradGradGradGradGradGradGrad
 Berny optimization.
 FormGI is forming the generalized inverse of G from B-inverse, IUseBI=4.
 Internal  Forces:  Max     0.004085881 RMS     0.001532514
 Search for a local minimum.
 Step number   1 out of a maximum of   38
 All quantities printed in internal units (Hartrees-Bohrs-Radians)
 Mixed Optimization -- RFO/linear search
 Second derivative matrix not updated -- first step.
 ITU=  0
     Eigenvalues ---    0.00280   0.05575   0.05575   0.05575   0.05575
     Eigenvalues ---    0.16000   0.16000   0.16000   0.16000   0.16000
     Eigenvalues ---    0.16000   0.28810   0.34549   0.34549   0.34549
     Eigenvalues ---    0.34549   0.34549   0.34549
 RFO step:  Lambda=-2.33396602D-04 EMin= 2.80064107D-03
 Linear search not attempted -- first point.
 Iteration  1 RMS(Cart)=  0.00975893 RMS(Int)=  0.00001687
 Iteration  2 RMS(Cart)=  0.00001729 RMS(Int)=  0.00001022
 Iteration  3 RMS(Cart)=  0.00000000 RMS(Int)=  0.00001022
 ClnCor:  largest displacement from symmetrization is 4.34D-09 for atom     8.
 Variable       Old X    -DE/DX   Delta X   Delta X   Delta X     New X
                                 (Linear)    (Quad)   (Total)
    R1        2.90400   0.00409   0.00000   0.01417   0.01417   2.91817
    R2        2.06413   0.00251   0.00000   0.00727   0.00727   2.07140
    R3        2.06413   0.00257   0.00000   0.00744   0.00744   2.07157
    R4        2.06413   0.00257   0.00000   0.00743   0.00743   2.07156
    R5        2.06413   0.00257   0.00000   0.00743   0.00743   2.07156
    R6        2.06413   0.00257   0.00000   0.00744   0.00744   2.07157
    R7        2.06413   0.00251   0.00000   0.00727   0.00727   2.07140
    A1        1.92692   0.00093   0.00000   0.00583   0.00581   1.93274
    A2        1.92692   0.00090   0.00000   0.00562   0.00560   1.93252
    A3        1.92691   0.00087   0.00000   0.00538   0.00536   1.93228
    A4        1.89407  -0.00094   0.00000  -0.00577  -0.00578   1.88829
    A5        1.89407  -0.00093   0.00000  -0.00585  -0.00587   1.88820
    A6        1.89407  -0.00092   0.00000  -0.00577  -0.00578   1.88829
    A7        1.92691   0.00087   0.00000   0.00538   0.00536   1.93228
    A8        1.92692   0.00090   0.00000   0.00562   0.00560   1.93252
    A9        1.92692   0.00093   0.00000   0.00583   0.00581   1.93274
   A10        1.89407  -0.00092   0.00000  -0.00577  -0.00578   1.88829
   A11        1.89407  -0.00093   0.00000  -0.00585  -0.00587   1.88820
   A12        1.89407  -0.00094   0.00000  -0.00577  -0.00578   1.88829
    D1        1.04720   0.00000   0.00000   0.00008   0.00008   1.04728
    D2       -1.04720   0.00001   0.00000   0.00019   0.00019  -1.04701
    D3        3.14159   0.00000   0.00000   0.00000   0.00000   3.14159
    D4       -1.04720  -0.00001   0.00000  -0.00011  -0.00011  -1.04731
    D5        3.14159   0.00000   0.00000   0.00000   0.00000   3.14159
    D6        1.04720  -0.00001   0.00000  -0.00019  -0.00019   1.04701
    D7        3.14159   0.00000   0.00000   0.00000   0.00000   3.14159
    D8        1.04720   0.00001   0.00000   0.00011   0.00011   1.04731
    D9       -1.04720   0.00000   0.00000  -0.00008  -0.00008  -1.04728
         Item               Value     Threshold  Converged?
 Maximum Force            0.004086     0.000450     NO 
 RMS     Force            0.001533     0.000300     NO 
 Maximum Displacement     0.018464     0.001800     NO 
 RMS     Displacement     0.009767     0.001200     NO 
 Predicted change in Energy=-1.168054D-04
 GradGradGradGradGradGradGradGradGradGradGradGradGradGradGradGradGradGrad

                          Input orientation:                          
 ---------------------------------------------------------------------
 Center     Atomic      Atomic             Coordinates (Angstroms)
 Number     Number       Type             X           Y           Z
 ---------------------------------------------------------------------
      1          6           0       -1.771940    1.608195   -0.000003
      2          6           0       -0.946240    0.303255    0.000003
      3          1           0       -2.709691    1.474137    0.551507
      4          1           0       -2.017715    1.911753   -1.024291
      5          1           0       -1.210355    2.422321    0.472781
      6          1           0       -1.507825   -0.510871   -0.472781
      7          1           0       -0.700465   -0.000303    1.024291
      8          1           0       -0.008489    0.437313   -0.551507
 ---------------------------------------------------------------------
                    Distance matrix (angstroms):
                    1          2          3          4          5
     1  C    0.000000
     2  C    1.544230   0.000000
     3  H    1.096136   2.187437   0.000000
     4  H    1.096229   2.187351   1.775803   0.000000
     5  H    1.096222   2.187170   1.775742   1.775876   0.000000
     6  H    2.187170   1.096222   2.536514   2.536387   3.096157
     7  H    2.187351   1.096229   2.536630   3.096417   2.536387
     8  H    2.187437   1.096136   3.096472   2.536630   2.536514
                    6          7          8
     6  H    0.000000
     7  H    1.775876   0.000000
     8  H    1.775742   1.775803   0.000000
 Stoichiometry    C2H6
 Framework group  CI[X(C2H6)]
 Deg. of freedom     9
 Full point group                 CI      NOp   2
 Largest Abelian subgroup         CI      NOp   2
 Largest concise Abelian subgroup CI      NOp   2
                         Standard orientation:                         
 ---------------------------------------------------------------------
 Center     Atomic      Atomic             Coordinates (Angstroms)
 Number     Number       Type             X           Y           Z
 ---------------------------------------------------------------------
      1          6           0       -0.412850    0.652470   -0.000003
      2          6           0        0.412850   -0.652470    0.000003
      3          1           0       -1.350601    0.518412    0.551507
      4          1           0       -0.658625    0.956028   -1.024291
      5          1           0        0.148735    1.466596    0.472781
      6          1           0       -0.148735   -1.466596   -0.472781
      7          1           0        0.658625   -0.956028    1.024291
      8          1           0        1.350601   -0.518412   -0.551507
 ---------------------------------------------------------------------
 Rotational constants (GHZ):     79.5079315     19.7236266     19.7231998
 Standard basis: STO-3G (5D, 7F)
 There are     8 symmetry adapted cartesian basis functions of AG  symmetry.
 There are     8 symmetry adapted cartesian basis functions of AU  symmetry.
 There are     8 symmetry adapted basis functions of AG  symmetry.
 There are     8 symmetry adapted basis functions of AU  symmetry.
    16 basis functions,    48 primitive gaussians,    16 cartesian basis functions
     9 alpha electrons        9 beta electrons
       nuclear repulsion energy        41.9769951293 Hartrees.
 NAtoms=    8 NActive=    8 NUniq=    4 SFac= 4.00D+00 NAtFMM=   60 NAOKFM=F Big=F
 Integral buffers will be    131072 words long.
 Raffenetti 2 integral format.
 Two-electron integral symmetry is turned on.
 One-electron integrals computed using PRISM.
 NBasis=    16 RedAO= T EigKep=  1.49D-01  NBF=     8     8
 NBsUse=    16 1.00D-06 EigRej= -1.00D+00 NBFU=     8     8
 Initial guess from the checkpoint file:  "/scr/Gau-25885.chk"
 B after Tr=     0.000000    0.000000    0.000000
         Rot=    1.000000    0.000001    0.000000   -0.000021 Ang=   0.00 deg.
 Initial guess orbital symmetries:
       Occupied  (AU) (AG) (AG) (AU) (AU) (AU) (AG) (AG) (AG)
       Virtual   (AG) (AG) (AG) (AU) (AU) (AU) (AU)
 Keep R1 ints in memory in symmetry-blocked form, NReq=889927.
 Requested convergence on RMS density matrix=1.00D-08 within 128 cycles.
 Requested convergence on MAX density matrix=1.00D-06.
 Requested convergence on             energy=1.00D-06.
 No special actions if energy rises.
 SCF Done:  E(RM062X) =  -78.8667212904     A.U. after    6 cycles
            NFock=  6  Conv=0.90D-09     -V/T= 2.0164
 Calling FoFJK, ICntrl=      2127 FMM=F ISym2X=1 I1Cent= 0 IOpClX= 0 NMat=1 NMatS=1 NMatT=0.
 ***** Axes restored to original set *****
 -------------------------------------------------------------------
 Center     Atomic                   Forces (Hartrees/Bohr)
 Number     Number              X              Y              Z
 -------------------------------------------------------------------
      1        6           0.000600724   -0.000905760   -0.000018823
      2        6          -0.000600724    0.000905760    0.000018823
      3        1           0.000461014   -0.000194877   -0.000200893
      4        1           0.000231696   -0.000337531    0.000368598
      5        1          -0.000076336   -0.000506367   -0.000157576
      6        1           0.000076336    0.000506367    0.000157576
      7        1          -0.000231696    0.000337531   -0.000368598
      8        1          -0.000461014    0.000194877    0.000200893
 -------------------------------------------------------------------
 Cartesian Forces:  Max     0.000905760 RMS     0.000414632

 GradGradGradGradGradGradGradGradGradGradGradGradGradGradGradGradGradGrad
 Berny optimization.
 Using GEDIIS/GDIIS optimizer.
 FormGI is forming the generalized inverse of G from B-inverse, IUseBI=4.
 Internal  Forces:  Max     0.002293998 RMS     0.000514512
 Search for a local minimum.
 Step number   2 out of a maximum of   38
 All quantities printed in internal units (Hartrees-Bohrs-Radians)
 Mixed Optimization -- En-DIIS/RFO-DIIS
 Update second derivatives using D2CorX and points    1    2
 DE= -8.05D-05 DEPred=-1.17D-04 R= 6.89D-01
 TightC=F SS=  1.41D+00  RLast= 3.03D-02 DXNew= 5.0454D-01 9.0897D-02
 Trust test= 6.89D-01 RLast= 3.03D-02 DXMaxT set to 3.00D-01
 ITU=  1  0
 Use linear search instead of GDIIS.
     Eigenvalues ---    0.00280   0.05515   0.05515   0.05518   0.05518
     Eigenvalues ---    0.16000   0.16000   0.16000   0.16000   0.16000
     Eigenvalues ---    0.16580   0.30939   0.34549   0.34549   0.34549
     Eigenvalues ---    0.34549   0.34549   0.40533
 RFO step:  Lambda=-3.15486664D-06 EMin= 2.80064107D-03
 Quartic linear search produced a step of -0.23570.
 Iteration  1 RMS(Cart)=  0.00266181 RMS(Int)=  0.00000207
 Iteration  2 RMS(Cart)=  0.00000062 RMS(Int)=  0.00000197
 ClnCor:  largest displacement from symmetrization is 4.24D-11 for atom     6.
 Variable       Old X    -DE/DX   Delta X   Delta X   Delta X     New X
                                 (Linear)    (Quad)   (Total)
    R1        2.91817  -0.00229  -0.00334  -0.00259  -0.00593   2.91224
    R2        2.07140  -0.00048  -0.00171   0.00075  -0.00097   2.07043
    R3        2.07157  -0.00049  -0.00175   0.00075  -0.00100   2.07057
    R4        2.07156  -0.00048  -0.00175   0.00078  -0.00097   2.07059
    R5        2.07156  -0.00048  -0.00175   0.00078  -0.00097   2.07059
    R6        2.07157  -0.00049  -0.00175   0.00075  -0.00100   2.07057
    R7        2.07140  -0.00048  -0.00171   0.00075  -0.00097   2.07043
    A1        1.93274  -0.00026  -0.00137   0.00017  -0.00120   1.93154
    A2        1.93252  -0.00025  -0.00132   0.00019  -0.00113   1.93139
    A3        1.93228  -0.00023  -0.00126   0.00021  -0.00105   1.93123
    A4        1.88829   0.00026   0.00136  -0.00020   0.00117   1.88945
    A5        1.88820   0.00026   0.00138  -0.00023   0.00116   1.88936
    A6        1.88829   0.00025   0.00136  -0.00017   0.00120   1.88948
    A7        1.93228  -0.00023  -0.00126   0.00021  -0.00105   1.93123
    A8        1.93252  -0.00025  -0.00132   0.00019  -0.00113   1.93139
    A9        1.93274  -0.00026  -0.00137   0.00017  -0.00120   1.93154
   A10        1.88829   0.00025   0.00136  -0.00017   0.00120   1.88948
   A11        1.88820   0.00026   0.00138  -0.00023   0.00116   1.88936
   A12        1.88829   0.00026   0.00136  -0.00020   0.00117   1.88945
    D1        1.04728   0.00000  -0.00002   0.00003   0.00002   1.04729
    D2       -1.04701   0.00000  -0.00004  -0.00001  -0.00006  -1.04707
    D3        3.14159   0.00000   0.00000   0.00000   0.00000   3.14159
    D4       -1.04731   0.00001   0.00003   0.00005   0.00007  -1.04723
    D5        3.14159   0.00000   0.00000   0.00000   0.00000   3.14159
    D6        1.04701   0.00000   0.00004   0.00001   0.00006   1.04707
    D7        3.14159   0.00000   0.00000   0.00000   0.00000   3.14159
    D8        1.04731  -0.00001  -0.00003  -0.00005  -0.00007   1.04723
    D9       -1.04728   0.00000   0.00002  -0.00003  -0.00002  -1.04729
         Item               Value     Threshold  Converged?
 Maximum Force            0.002294     0.000450     NO 
 RMS     Force            0.000515     0.000300     NO 
 Maximum Displacement     0.004647     0.001800     NO 
 RMS     Displacement     0.002662     0.001200     NO 
 Predicted change in Energy=-9.871829D-06
 GradGradGradGradGradGradGradGradGradGradGradGradGradGradGradGradGradGrad

                          Input orientation:                          
 ---------------------------------------------------------------------
 Center     Atomic      Atomic             Coordinates (Angstroms)
 Number     Number       Type             X           Y           Z
 ---------------------------------------------------------------------
      1          6           0       -1.771073    1.606887   -0.000008
      2          6           0       -0.947107    0.304563    0.000008
      3          1           0       -2.708075    1.471686    0.551479
      4          1           0       -2.016151    1.909294   -1.024236
      5          1           0       -1.208850    2.419884    0.472767
      6          1           0       -1.509330   -0.508434   -0.472767
      7          1           0       -0.702029    0.002156    1.024236
      8          1           0       -0.010105    0.439764   -0.551479
 ---------------------------------------------------------------------
                    Distance matrix (angstroms):
                    1          2          3          4          5
     1  C    0.000000
     2  C    1.541092   0.000000
     3  H    1.095623   2.183416   0.000000
     4  H    1.095699   2.183366   1.775707   0.000000
     5  H    1.095708   2.183253   1.775655   1.775797   0.000000
     6  H    2.183253   1.095708   2.531195   2.531085   3.091823
     7  H    2.183366   1.095699   2.531252   3.091978   2.531085
     8  H    2.183416   1.095623   3.091994   2.531252   2.531195
                    6          7          8
     6  H    0.000000
     7  H    1.775797   0.000000
     8  H    1.775655   1.775707   0.000000
 Stoichiometry    C2H6
 Framework group  CI[X(C2H6)]
 Deg. of freedom     9
 Full point group                 CI      NOp   2
 Largest Abelian subgroup         CI      NOp   2
 Largest concise Abelian subgroup CI      NOp   2
                         Standard orientation:                         
 ---------------------------------------------------------------------
 Center     Atomic      Atomic             Coordinates (Angstroms)
 Number     Number       Type             X           Y           Z
 ---------------------------------------------------------------------
      1          6           0       -0.411983    0.651162   -0.000008
      2          6           0        0.411983   -0.651162    0.000008
      3          1           0       -1.348985    0.515961    0.551479
      4          1           0       -0.657061    0.953569   -1.024236
      5          1           0        0.150240    1.464159    0.472767
      6          1           0       -0.150240   -1.464159   -0.472767
      7          1           0        0.657061   -0.953569    1.024236
      8          1           0        1.348985   -0.515961   -0.551479
 ---------------------------------------------------------------------
 Rotational constants (GHZ):     79.5157353     19.8002185     19.7997582
 Standard basis: STO-3G (5D, 7F)
 There are     8 symmetry adapted cartesian basis functions of AG  symmetry.
 There are     8 symmetry adapted cartesian basis functions of AU  symmetry.
 There are     8 symmetry adapted basis functions of AG  symmetry.
 There are     8 symmetry adapted basis functions of AU  symmetry.
    16 basis functions,    48 primitive gaussians,    16 cartesian basis functions
     9 alpha electrons        9 beta electrons
       nuclear repulsion energy        42.0296564713 Hartrees.
 NAtoms=    8 NActive=    8 NUniq=    4 SFac= 4.00D+00 NAtFMM=   60 NAOKFM=F Big=F
 Integral buffers will be    131072 words long.
 Raffenetti 2 integral format.
 Two-electron integral symmetry is turned on.
 One-electron integrals computed using PRISM.
 NBasis=    16 RedAO= T EigKep=  1.49D-01  NBF=     8     8
 NBsUse=    16 1.00D-06 EigRej= -1.00D+00 NBFU=     8     8
 Initial guess from the checkpoint file:  "/scr/Gau-25885.chk"
 B after Tr=     0.000000    0.000000    0.000000
         Rot=    1.000000    0.000001    0.000000    0.000007 Ang=   0.00 deg.
 Initial guess orbital symmetries:
       Occupied  (AU) (AG) (AG) (AU) (AU) (AU) (AG) (AG) (AG)
       Virtual   (AG) (AG) (AG) (AU) (AU) (AU) (AU)
 Keep R1 ints in memory in symmetry-blocked form, NReq=889927.
 Requested convergence on RMS density matrix=1.00D-08 within 128 cycles.
 Requested convergence on MAX density matrix=1.00D-06.
 Requested convergence on             energy=1.00D-06.
 No special actions if energy rises.
 SCF Done:  E(RM062X) =  -78.8667309886     A.U. after    5 cycles
            NFock=  5  Conv=0.77D-08     -V/T= 2.0163
 Calling FoFJK, ICntrl=      2127 FMM=F ISym2X=1 I1Cent= 0 IOpClX= 0 NMat=1 NMatS=1 NMatT=0.
 ***** Axes restored to original set *****
 -------------------------------------------------------------------
 Center     Atomic                   Forces (Hartrees/Bohr)
 Number     Number              X              Y              Z
 -------------------------------------------------------------------
      1        6          -0.000046126    0.000066380   -0.000001758
      2        6           0.000046126   -0.000066380    0.000001758
      3        1           0.000056054    0.000035679   -0.000061205
      4        1           0.000004409    0.000004382    0.000093707
      5        1          -0.000089582   -0.000044890   -0.000038908
      6        1           0.000089582    0.000044890    0.000038908
      7        1          -0.000004409   -0.000004382   -0.000093707
      8        1          -0.000056054   -0.000035679    0.000061205
 -------------------------------------------------------------------
 Cartesian Forces:  Max     0.000093707 RMS     0.000054061

 GradGradGradGradGradGradGradGradGradGradGradGradGradGradGradGradGradGrad
 Berny optimization.
 Using GEDIIS/GDIIS optimizer.
 FormGI is forming the generalized inverse of G from B-inverse, IUseBI=4.
 Internal  Forces:  Max     0.000092243 RMS     0.000051174
 Search for a local minimum.
 Step number   3 out of a maximum of   38
 All quantities printed in internal units (Hartrees-Bohrs-Radians)
 Mixed Optimization -- En-DIIS/RFO-DIIS
 Swapping is turned off.
 Update second derivatives using D2CorX and points    1    2    3
 DE= -9.70D-06 DEPred=-9.87D-06 R= 9.82D-01
 TightC=F SS=  1.41D+00  RLast= 7.54D-03 DXNew= 5.0454D-01 2.2613D-02
 Trust test= 9.82D-01 RLast= 7.54D-03 DXMaxT set to 3.00D-01
 ITU=  1  1  0
     Eigenvalues ---    0.00280   0.05527   0.05527   0.05529   0.05529
     Eigenvalues ---    0.16000   0.16000   0.16000   0.16000   0.16000
     Eigenvalues ---    0.16913   0.33330   0.34548   0.34549   0.34549
     Eigenvalues ---    0.34549   0.34549   0.38427
 En-DIIS/RFO-DIIS IScMMF=        0 using points:     3    2
 RFO step:  Lambda=-1.35765413D-07.
 DidBck=F Rises=F RFO-DIIS coefs:    0.97313    0.02687
 Iteration  1 RMS(Cart)=  0.00026113 RMS(Int)=  0.00000004
 Iteration  2 RMS(Cart)=  0.00000004 RMS(Int)=  0.00000000
 ClnCor:  largest displacement from symmetrization is 8.95D-09 for atom     7.
 Variable       Old X    -DE/DX   Delta X   Delta X   Delta X     New X
                                 (Linear)    (Quad)   (Total)
    R1        2.91224   0.00009   0.00016   0.00004   0.00020   2.91244
    R2        2.07043  -0.00009   0.00003  -0.00029  -0.00026   2.07016
    R3        2.07057  -0.00009   0.00003  -0.00030  -0.00027   2.07030
    R4        2.07059  -0.00009   0.00003  -0.00030  -0.00028   2.07031
    R5        2.07059  -0.00009   0.00003  -0.00030  -0.00028   2.07031
    R6        2.07057  -0.00009   0.00003  -0.00030  -0.00027   2.07030
    R7        2.07043  -0.00009   0.00003  -0.00029  -0.00026   2.07016
    A1        1.93154   0.00004   0.00003   0.00017   0.00021   1.93175
    A2        1.93139   0.00004   0.00003   0.00017   0.00020   1.93159
    A3        1.93123   0.00004   0.00003   0.00017   0.00020   1.93142
    A4        1.88945  -0.00004  -0.00003  -0.00018  -0.00021   1.88924
    A5        1.88936  -0.00004  -0.00003  -0.00018  -0.00021   1.88915
    A6        1.88948  -0.00004  -0.00003  -0.00018  -0.00021   1.88927
    A7        1.93123   0.00004   0.00003   0.00017   0.00020   1.93142
    A8        1.93139   0.00004   0.00003   0.00017   0.00020   1.93159
    A9        1.93154   0.00004   0.00003   0.00017   0.00021   1.93175
   A10        1.88948  -0.00004  -0.00003  -0.00018  -0.00021   1.88927
   A11        1.88936  -0.00004  -0.00003  -0.00018  -0.00021   1.88915
   A12        1.88945  -0.00004  -0.00003  -0.00018  -0.00021   1.88924
    D1        1.04729   0.00000   0.00000   0.00000   0.00000   1.04729
    D2       -1.04707   0.00000   0.00000   0.00000   0.00000  -1.04706
    D3        3.14159   0.00000   0.00000   0.00000   0.00000   3.14159
    D4       -1.04723   0.00000   0.00000   0.00000   0.00000  -1.04723
    D5        3.14159   0.00000   0.00000   0.00000   0.00000   3.14159
    D6        1.04707   0.00000   0.00000   0.00000   0.00000   1.04706
    D7        3.14159   0.00000   0.00000   0.00000   0.00000   3.14159
    D8        1.04723   0.00000   0.00000   0.00000   0.00000   1.04723
    D9       -1.04729   0.00000   0.00000   0.00000   0.00000  -1.04729
         Item               Value     Threshold  Converged?
 Maximum Force            0.000092     0.000450     YES
 RMS     Force            0.000051     0.000300     YES
 Maximum Displacement     0.000518     0.001800     YES
 RMS     Displacement     0.000261     0.001200     YES
 Predicted change in Energy=-1.282398D-07
 Optimization completed.
    -- Stationary point found.
                           ----------------------------
                           !   Optimized Parameters   !
                           ! (Angstroms and Degrees)  !
 --------------------------                            --------------------------
 ! Name  Definition              Value          Derivative Info.                !
 --------------------------------------------------------------------------------
 ! R1    R(1,2)                  1.5411         -DE/DX =    0.0001              !
 ! R2    R(1,3)                  1.0956         -DE/DX =   -0.0001              !
 ! R3    R(1,4)                  1.0957         -DE/DX =   -0.0001              !
 ! R4    R(1,5)                  1.0957         -DE/DX =   -0.0001              !
 ! R5    R(2,6)                  1.0957         -DE/DX =   -0.0001              !
 ! R6    R(2,7)                  1.0957         -DE/DX =   -0.0001              !
 ! R7    R(2,8)                  1.0956         -DE/DX =   -0.0001              !
 ! A1    A(2,1,3)              110.6691         -DE/DX =    0.0                 !
 ! A2    A(2,1,4)              110.6607         -DE/DX =    0.0                 !
 ! A3    A(2,1,5)              110.6511         -DE/DX =    0.0                 !
 ! A4    A(3,1,4)              108.2575         -DE/DX =    0.0                 !
 ! A5    A(3,1,5)              108.2523         -DE/DX =    0.0                 !
 ! A6    A(4,1,5)              108.2594         -DE/DX =    0.0                 !
 ! A7    A(1,2,6)              110.6511         -DE/DX =    0.0                 !
 ! A8    A(1,2,7)              110.6607         -DE/DX =    0.0                 !
 ! A9    A(1,2,8)              110.6691         -DE/DX =    0.0                 !
 ! A10   A(6,2,7)              108.2594         -DE/DX =    0.0                 !
 ! A11   A(6,2,8)              108.2523         -DE/DX =    0.0                 !
 ! A12   A(7,2,8)              108.2575         -DE/DX =    0.0                 !
 ! D1    D(3,1,2,6)             60.0054         -DE/DX =    0.0                 !
 ! D2    D(3,1,2,7)            -59.9926         -DE/DX =    0.0                 !
 ! D3    D(3,1,2,8)            180.0            -DE/DX =    0.0                 !
 ! D4    D(4,1,2,6)            -60.0019         -DE/DX =    0.0                 !
 ! D5    D(4,1,2,7)            180.0            -DE/DX =    0.0                 !
 ! D6    D(4,1,2,8)             59.9926         -DE/DX =    0.0                 !
 ! D7    D(5,1,2,6)            180.0            -DE/DX =    0.0                 !
 ! D8    D(5,1,2,7)             60.0019         -DE/DX =    0.0                 !
 ! D9    D(5,1,2,8)            -60.0054         -DE/DX =    0.0                 !
 --------------------------------------------------------------------------------
 GradGradGradGradGradGradGradGradGradGradGradGradGradGradGradGradGradGrad

                          Input orientation:                          
 ---------------------------------------------------------------------
 Center     Atomic      Atomic             Coordinates (Angstroms)
 Number     Number       Type             X           Y           Z
 ---------------------------------------------------------------------
      1          6           0       -1.771073    1.606887   -0.000008
      2          6           0       -0.947107    0.304563    0.000008
      3          1           0       -2.708075    1.471686    0.551479
      4          1           0       -2.016151    1.909294   -1.024236
      5          1           0       -1.208850    2.419884    0.472767
      6          1           0       -1.509330   -0.508434   -0.472767
      7          1           0       -0.702029    0.002156    1.024236
      8          1           0       -0.010105    0.439764   -0.551479
 ---------------------------------------------------------------------
                    Distance matrix (angstroms):
                    1          2          3          4          5
     1  C    0.000000
     2  C    1.541092   0.000000
     3  H    1.095623   2.183416   0.000000
     4  H    1.095699   2.183366   1.775707   0.000000
     5  H    1.095708   2.183253   1.775655   1.775797   0.000000
     6  H    2.183253   1.095708   2.531195   2.531085   3.091823
     7  H    2.183366   1.095699   2.531252   3.091978   2.531085
     8  H    2.183416   1.095623   3.091994   2.531252   2.531195
                    6          7          8
     6  H    0.000000
     7  H    1.775797   0.000000
     8  H    1.775655   1.775707   0.000000
 Stoichiometry    C2H6
 Framework group  CI[X(C2H6)]
 Deg. of freedom     9
 Full point group                 CI      NOp   2
 Largest Abelian subgroup         CI      NOp   2
 Largest concise Abelian subgroup CI      NOp   2
                         Standard orientation:                         
 ---------------------------------------------------------------------
 Center     Atomic      Atomic             Coordinates (Angstroms)
 Number     Number       Type             X           Y           Z
 ---------------------------------------------------------------------
      1          6           0       -0.411983    0.651162   -0.000008
      2          6           0        0.411983   -0.651162    0.000008
      3          1           0       -1.348985    0.515961    0.551479
      4          1           0       -0.657061    0.953569   -1.024236
      5          1           0        0.150240    1.464159    0.472767
      6          1           0       -0.150240   -1.464159   -0.472767
      7          1           0        0.657061   -0.953569    1.024236
      8          1           0        1.348985   -0.515961   -0.551479
 ---------------------------------------------------------------------
 Rotational constants (GHZ):     79.5157353     19.8002185     19.7997582

 **********************************************************************

            Population analysis using the SCF density.

 **********************************************************************

 Orbital symmetries:
       Occupied  (AU) (AG) (AG) (AU) (AU) (AU) (AG) (AG) (AG)
       Virtual   (AU) (AU) (AU) (AG) (AU) (AG) (AG)
 The electronic state is 1-AG.
 Alpha  occ. eigenvalues --  -10.37232 -10.37160  -0.80706  -0.66585  -0.47064
 Alpha  occ. eigenvalues --   -0.47062  -0.38444  -0.37248  -0.37248
 Alpha virt. eigenvalues --    0.48302   0.48309   0.48973   0.55256   0.59166
 Alpha virt. eigenvalues --    0.59566   0.59574
          Condensed to atoms (all electrons):
               1          2          3          4          5          6
     1  C    4.759603   0.360946   0.382534   0.382517   0.382518  -0.019825
     2  C    0.360946   4.759603  -0.019813  -0.019819  -0.019825   0.382518
     3  H    0.382534  -0.019813   0.611892  -0.020805  -0.020806  -0.002188
     4  H    0.382517  -0.019819  -0.020805   0.611918  -0.020793  -0.002189
     5  H    0.382518  -0.019825  -0.020806  -0.020793   0.611906   0.001817
     6  H   -0.019825   0.382518  -0.002188  -0.002189   0.001817   0.611906
     7  H   -0.019819   0.382517  -0.002188   0.001816  -0.002189  -0.020793
     8  H   -0.019813   0.382534   0.001816  -0.002188  -0.002188  -0.020806
               7          8
     1  C   -0.019819  -0.019813
     2  C    0.382517   0.382534
     3  H   -0.002188   0.001816
     4  H    0.001816  -0.002188
     5  H   -0.002189  -0.002188
     6  H   -0.020793  -0.020806
     7  H    0.611918  -0.020805
     8  H   -0.020805   0.611892
 Mulliken charges:
               1
     1  C   -0.208660
     2  C   -0.208660
     3  H    0.069558
     4  H    0.069542
     5  H    0.069560
     6  H    0.069560
     7  H    0.069542
     8  H    0.069558
 Sum of Mulliken charges =   0.00000
 Mulliken charges with hydrogens summed into heavy atoms:
               1
     1  C    0.000000
     2  C    0.000000
 Electronic spatial extent (au):  <R**2>=            107.8030
 Charge=              0.0000 electrons
 Dipole moment (field-independent basis, Debye):
    X=              0.0000    Y=              0.0000    Z=              0.0000  Tot=              0.0000
 Quadrupole moment (field-independent basis, Debye-Ang):
   XX=            -13.9489   YY=            -14.1042   ZZ=            -13.8451
   XY=              0.1637   XZ=              0.0000   YZ=              0.0002
 Traceless Quadrupole moment (field-independent basis, Debye-Ang):
   XX=              0.0172   YY=             -0.1381   ZZ=              0.1209
   XY=              0.1637   XZ=              0.0000   YZ=              0.0002
 Octapole moment (field-independent basis, Debye-Ang**2):
  XXX=              0.0000  YYY=              0.0000  ZZZ=              0.0000  XYY=              0.0000
  XXY=              0.0000  XXZ=              0.0000  XZZ=              0.0000  YZZ=              0.0000
  YYZ=              0.0000  XYZ=              0.0000
 Hexadecapole moment (field-independent basis, Debye-Ang**3):
 XXXX=            -40.6930 YYYY=            -66.1747 ZZZZ=            -24.8342 XXXY=             12.8386
 XXXZ=             -1.4851 YYYX=             14.4471 YYYZ=              0.9393 ZZZX=              0.6925
 ZZZY=             -1.0954 XXYY=            -18.5376 XXZZ=            -10.6216 YYZZ=            -14.6815
 XXYZ=              0.1564 YYXZ=              0.7916 ZZXY=              3.8780
 N-N= 4.202965647130D+01 E-N=-2.656743160582D+02  KE= 7.760017640099D+01
 Symmetry AG   KE= 4.036721286452D+01
 Symmetry AU   KE= 3.723296353647D+01
 1\1\GINC-N0292\FOpt\RM062X\STO-3G\C2H6\TAIYUPAN\23-Feb-2017\0\\#n M062
 X/STO-3G Opt\\CH3_M062X/STO-3G\\0,1\C,-1.7710726224,1.6068866969,-0.00
 00077195\C,-0.9471073776,0.3045633031,0.0000077195\H,-2.7080752801,1.4
 716863004,0.551478767\H,-2.0161506702,1.9092940365,-1.0242358127\H,-1.
 208849552,2.419884008,0.4727674392\H,-1.509330448,-0.508434008,-0.4727
 674392\H,-0.7020293298,0.0021559635,1.0242358127\H,-0.0101047199,0.439
 7636996,-0.551478767\\Version=ES64L-G09RevE.01\State=1-AG\HF=-78.86673
 1\RMSD=7.746e-09\RMSF=5.406e-05\Dipole=0.,0.,0.\Quadrupole=0.0127803,-
 0.102693,0.0899127,0.1216762,0.0000348,0.0001735\PG=CI [X(C2H6)]\\@


 When I told the people of Northern Ireland that I was
 an atheist, a woman in the audience stood up and said,
 "Yes, but is it the God of the Catholics or the God
 of the Protestants in whom you don't believe?"
                               -- Quentin Crisp
 Job cpu time:       0 days  0 hours  0 minutes 25.6 seconds.
 File lengths (MBytes):  RWF=      5 Int=      0 D2E=      0 Chk=      1 Scr=      1
 Normal termination of Gaussian 09 at Thu Feb 23 18:28:58 2017.
