 Entering Gaussian System, Link 0=g09
 Input=CH3_B_S.com
 Output=CH3_B_S.log
 Initial command:
 /sw/contrib/gaussian/g09/E01/g09/l1.exe "/scr/Gau-24576.inp" -scrdir="/scr/"
 Entering Link 1 = /sw/contrib/gaussian/g09/E01/g09/l1.exe PID=     24577.
  
 Copyright (c) 1988,1990,1992,1993,1995,1998,2003,2009,2015,
            Gaussian, Inc.  All Rights Reserved.
  
 This is part of the Gaussian(R) 09 program.  It is based on
 the Gaussian(R) 03 system (copyright 2003, Gaussian, Inc.),
 the Gaussian(R) 98 system (copyright 1998, Gaussian, Inc.),
 the Gaussian(R) 94 system (copyright 1995, Gaussian, Inc.),
 the Gaussian 92(TM) system (copyright 1992, Gaussian, Inc.),
 the Gaussian 90(TM) system (copyright 1990, Gaussian, Inc.),
 the Gaussian 88(TM) system (copyright 1988, Gaussian, Inc.),
 the Gaussian 86(TM) system (copyright 1986, Carnegie Mellon
 University), and the Gaussian 82(TM) system (copyright 1983,
 Carnegie Mellon University). Gaussian is a federally registered
 trademark of Gaussian, Inc.
  
 This software contains proprietary and confidential information,
 including trade secrets, belonging to Gaussian, Inc.
  
 This software is provided under written license and may be
 used, copied, transmitted, or stored only in accord with that
 written license.
  
 The following legend is applicable only to US Government
 contracts under FAR:
  
                    RESTRICTED RIGHTS LEGEND
  
 Use, reproduction and disclosure by the US Government is
 subject to restrictions as set forth in subparagraphs (a)
 and (c) of the Commercial Computer Software - Restricted
 Rights clause in FAR 52.227-19.
  
 Gaussian, Inc.
 340 Quinnipiac St., Bldg. 40, Wallingford CT 06492
  
  
 ---------------------------------------------------------------
 Warning -- This program may not be used in any manner that
 competes with the business of Gaussian, Inc. or will provide
 assistance to any competitor of Gaussian, Inc.  The licensee
 of this program is prohibited from giving any competitor of
 Gaussian, Inc. access to this program.  By using this program,
 the user acknowledges that Gaussian, Inc. is engaged in the
 business of creating and licensing software in the field of
 computational chemistry and represents and warrants to the
 licensee that it is not a competitor of Gaussian, Inc. and that
 it will not use this program in any manner prohibited above.
 ---------------------------------------------------------------
  

 Cite this work as:
 Gaussian 09, Revision E.01,
 M. J. Frisch, G. W. Trucks, H. B. Schlegel, G. E. Scuseria, 
 M. A. Robb, J. R. Cheeseman, G. Scalmani, V. Barone, B. Mennucci, 
 G. A. Petersson, H. Nakatsuji, M. Caricato, X. Li, H. P. Hratchian, 
 A. F. Izmaylov, J. Bloino, G. Zheng, J. L. Sonnenberg, M. Hada, 
 M. Ehara, K. Toyota, R. Fukuda, J. Hasegawa, M. Ishida, T. Nakajima, 
 Y. Honda, O. Kitao, H. Nakai, T. Vreven, J. A. Montgomery, Jr., 
 J. E. Peralta, F. Ogliaro, M. Bearpark, J. J. Heyd, E. Brothers, 
 K. N. Kudin, V. N. Staroverov, T. Keith, R. Kobayashi, J. Normand, 
 K. Raghavachari, A. Rendell, J. C. Burant, S. S. Iyengar, J. Tomasi, 
 M. Cossi, N. Rega, J. M. Millam, M. Klene, J. E. Knox, J. B. Cross, 
 V. Bakken, C. Adamo, J. Jaramillo, R. Gomperts, R. E. Stratmann, 
 O. Yazyev, A. J. Austin, R. Cammi, C. Pomelli, J. W. Ochterski, 
 R. L. Martin, K. Morokuma, V. G. Zakrzewski, G. A. Voth, 
 P. Salvador, J. J. Dannenberg, S. Dapprich, A. D. Daniels, 
 O. Farkas, J. B. Foresman, J. V. Ortiz, J. Cioslowski, 
 and D. J. Fox, Gaussian, Inc., Wallingford CT, 2013.
 
 ******************************************
 Gaussian 09:  ES64L-G09RevE.01 30-Nov-2015
                23-Feb-2017 
 ******************************************
 %NProcShared=8
 Will use up to    8 processors via shared memory.
 -------------------
 #n B3LYP/STO-3G Opt
 -------------------
 1/14=-1,18=20,19=15,26=3,38=1/1,3;
 2/9=110,12=2,17=6,18=5,40=1/2;
 3/6=3,11=2,16=1,25=1,30=1,71=1,74=-5/1,2,3;
 4//1;
 5/5=2,38=5/2;
 6/7=2,8=2,9=2,10=2,28=1/1;
 7//1,2,3,16;
 1/14=-1,18=20,19=15,26=3/3(2);
 2/9=110/2;
 99//99;
 2/9=110/2;
 3/6=3,11=2,16=1,25=1,30=1,71=1,74=-5/1,2,3;
 4/5=5,16=3,69=1/1;
 5/5=2,38=5/2;
 7//1,2,3,16;
 1/14=-1,18=20,19=15,26=3/3(-5);
 2/9=110/2;
 6/7=2,8=2,9=2,10=2,19=2,28=1/1;
 99/9=1/99;
 ----------------
 CH3_B3LYP/STO-3G
 ----------------
 Symbolic Z-matrix:
 Charge =  0 Multiplicity = 1
 C                    -1.76985   1.60508   0. 
 C                    -0.94833   0.30637   0. 
 H                    -2.70278   1.46556   0.5507 
 H                    -2.01181   1.90264  -1.02275 
 H                    -1.2057    2.41255   0.47205 
 H                    -1.51248  -0.5011   -0.47205 
 H                    -0.70637   0.00881   1.02275 
 H                    -0.0154    0.44589  -0.5507 
 

 GradGradGradGradGradGradGradGradGradGradGradGradGradGradGradGradGradGrad
 Berny optimization.
 Initialization pass.
                           ----------------------------
                           !    Initial Parameters    !
                           ! (Angstroms and Degrees)  !
 --------------------------                            --------------------------
 ! Name  Definition              Value          Derivative Info.                !
 --------------------------------------------------------------------------------
 ! R1    R(1,2)                  1.5367         estimate D2E/DX2                !
 ! R2    R(1,3)                  1.0923         estimate D2E/DX2                !
 ! R3    R(1,4)                  1.0923         estimate D2E/DX2                !
 ! R4    R(1,5)                  1.0923         estimate D2E/DX2                !
 ! R5    R(2,6)                  1.0923         estimate D2E/DX2                !
 ! R6    R(2,7)                  1.0923         estimate D2E/DX2                !
 ! R7    R(2,8)                  1.0923         estimate D2E/DX2                !
 ! A1    A(2,1,3)              110.4046         estimate D2E/DX2                !
 ! A2    A(2,1,4)              110.4044         estimate D2E/DX2                !
 ! A3    A(2,1,5)              110.404          estimate D2E/DX2                !
 ! A4    A(3,1,4)              108.5221         estimate D2E/DX2                !
 ! A5    A(3,1,5)              108.5221         estimate D2E/DX2                !
 ! A6    A(4,1,5)              108.5224         estimate D2E/DX2                !
 ! A7    A(1,2,6)              110.404          estimate D2E/DX2                !
 ! A8    A(1,2,7)              110.4044         estimate D2E/DX2                !
 ! A9    A(1,2,8)              110.4046         estimate D2E/DX2                !
 ! A10   A(6,2,7)              108.5224         estimate D2E/DX2                !
 ! A11   A(6,2,8)              108.5221         estimate D2E/DX2                !
 ! A12   A(7,2,8)              108.5221         estimate D2E/DX2                !
 ! D1    D(3,1,2,6)             60.0001         estimate D2E/DX2                !
 ! D2    D(3,1,2,7)            -59.9999         estimate D2E/DX2                !
 ! D3    D(3,1,2,8)            180.0            estimate D2E/DX2                !
 ! D4    D(4,1,2,6)            -59.9999         estimate D2E/DX2                !
 ! D5    D(4,1,2,7)            180.0            estimate D2E/DX2                !
 ! D6    D(4,1,2,8)             59.9999         estimate D2E/DX2                !
 ! D7    D(5,1,2,6)           -180.0            estimate D2E/DX2                !
 ! D8    D(5,1,2,7)             59.9999         estimate D2E/DX2                !
 ! D9    D(5,1,2,8)            -60.0001         estimate D2E/DX2                !
 --------------------------------------------------------------------------------
 Trust Radius=3.00D-01 FncErr=1.00D-07 GrdErr=1.00D-06
 Number of steps in this run=     38 maximum allowed number of steps=    100.
 GradGradGradGradGradGradGradGradGradGradGradGradGradGradGradGradGradGrad

                          Input orientation:                          
 ---------------------------------------------------------------------
 Center     Atomic      Atomic             Coordinates (Angstroms)
 Number     Number       Type             X           Y           Z
 ---------------------------------------------------------------------
      1          6           0       -1.769850    1.605080    0.000000
      2          6           0       -0.948330    0.306370    0.000000
      3          1           0       -2.702780    1.465560    0.550700
      4          1           0       -2.011810    1.902640   -1.022750
      5          1           0       -1.205700    2.412550    0.472050
      6          1           0       -1.512480   -0.501100   -0.472050
      7          1           0       -0.706370    0.008810    1.022750
      8          1           0       -0.015400    0.445890   -0.550700
 ---------------------------------------------------------------------
                    Distance matrix (angstroms):
                    1          2          3          4          5
     1  C    0.000000
     2  C    1.536731   0.000000
     3  H    1.092289   2.173726   0.000000
     4  H    1.092293   2.173726   1.773196   0.000000
     5  H    1.092293   2.173721   1.773196   1.773203   0.000000
     6  H    2.173721   1.092293   2.516065   2.516062   3.078116
     7  H    2.173726   1.092293   2.516069   3.078122   2.516062
     8  H    2.173726   1.092289   3.078120   2.516069   2.516065
                    6          7          8
     6  H    0.000000
     7  H    1.773203   0.000000
     8  H    1.773196   1.773196   0.000000
 This structure is nearly, but not quite of a higher symmetry.
 Consider Symm=Loose if the higher symmetry is desired.
 Stoichiometry    C2H6
 Framework group  CI[X(C2H6)]
 Deg. of freedom     9
 Full point group                 CI      NOp   2
 Largest Abelian subgroup         CI      NOp   2
 Largest concise Abelian subgroup CI      NOp   2
                         Standard orientation:                         
 ---------------------------------------------------------------------
 Center     Atomic      Atomic             Coordinates (Angstroms)
 Number     Number       Type             X           Y           Z
 ---------------------------------------------------------------------
      1          6           0       -0.410760    0.649355    0.000000
      2          6           0        0.410760   -0.649355    0.000000
      3          1           0       -1.343690    0.509835    0.550700
      4          1           0       -0.652720    0.946915   -1.022750
      5          1           0        0.153390    1.456825    0.472050
      6          1           0       -0.153390   -1.456825   -0.472050
      7          1           0        0.652720   -0.946915    1.022750
      8          1           0        1.343690   -0.509835   -0.550700
 ---------------------------------------------------------------------
 Rotational constants (GHZ):     79.7420612     19.9566490     19.9566228
 Standard basis: STO-3G (5D, 7F)
 There are     8 symmetry adapted cartesian basis functions of AG  symmetry.
 There are     8 symmetry adapted cartesian basis functions of AU  symmetry.
 There are     8 symmetry adapted basis functions of AG  symmetry.
 There are     8 symmetry adapted basis functions of AU  symmetry.
    16 basis functions,    48 primitive gaussians,    16 cartesian basis functions
     9 alpha electrons        9 beta electrons
       nuclear repulsion energy        42.1696170358 Hartrees.
 NAtoms=    8 NActive=    8 NUniq=    4 SFac= 4.00D+00 NAtFMM=   60 NAOKFM=F Big=F
 Integral buffers will be    131072 words long.
 Raffenetti 2 integral format.
 Two-electron integral symmetry is turned on.
 One-electron integrals computed using PRISM.
 NBasis=    16 RedAO= T EigKep=  1.47D-01  NBF=     8     8
 NBsUse=    16 1.00D-06 EigRej= -1.00D+00 NBFU=     8     8
 ExpMin= 1.69D-01 ExpMax= 7.16D+01 ExpMxC= 7.16D+01 IAcc=1 IRadAn=         1 AccDes= 0.00D+00
 Harris functional with IExCor=  402 and IRadAn=       1 diagonalized for initial guess.
 HarFok:  IExCor=  402 AccDes= 0.00D+00 IRadAn=         1 IDoV= 1 UseB2=F ITyADJ=14
 ICtDFT=  3500011 ScaDFX=  1.000000  1.000000  1.000000  1.000000
 FoFCou: FMM=F IPFlag=           0 FMFlag=      100000 FMFlg1=           0
         NFxFlg=           0 DoJE=T BraDBF=F KetDBF=T FulRan=T
         wScrn=  0.000000 ICntrl=     500 IOpCl=  0 I1Cent=   200000004 NGrid=           0
         NMat0=    1 NMatS0=      1 NMatT0=    0 NMatD0=    1 NMtDS0=    0 NMtDT0=    0
 Petite list used in FoFCou.
 Initial guess orbital symmetries:
       Occupied  (AU) (AG) (AG) (AU) (AU) (AU) (AG) (AG) (AG)
       Virtual   (AU) (AU) (AU) (AG) (AG) (AG) (AU)
 The electronic state of the initial guess is 1-AG.
 Keep R1 ints in memory in symmetry-blocked form, NReq=889161.
 Requested convergence on RMS density matrix=1.00D-08 within 128 cycles.
 Requested convergence on MAX density matrix=1.00D-06.
 Requested convergence on             energy=1.00D-06.
 No special actions if energy rises.
 Integral accuracy reduced to 1.0D-05 until final iterations.
 Initial convergence to 1.0D-05 achieved.  Increase integral accuracy.
 SCF Done:  E(RB3LYP) =  -78.8853923536     A.U. after    9 cycles
            NFock=  9  Conv=0.48D-09     -V/T= 2.0169

 **********************************************************************

            Population analysis using the SCF density.

 **********************************************************************

 Orbital symmetries:
       Occupied  (AU) (AG) (AG) (AU) (AU) (AU) (AG) (AG) (AG)
       Virtual   (AU) (AU) (AU) (AG) (AU) (AG) (AG)
 The electronic state is 1-AG.
 Alpha  occ. eigenvalues --  -10.00301 -10.00200  -0.71762  -0.58480  -0.40495
 Alpha  occ. eigenvalues --   -0.40494  -0.32475  -0.31207  -0.31207
 Alpha virt. eigenvalues --    0.41220   0.41220   0.42928   0.47450   0.51626
 Alpha virt. eigenvalues --    0.51844   0.51844
          Condensed to atoms (all electrons):
               1          2          3          4          5          6
     1  C    4.773404   0.362630   0.382409   0.382408   0.382408  -0.020346
     2  C    0.362630   4.773404  -0.020345  -0.020346  -0.020346   0.382408
     3  H    0.382409  -0.020345   0.608900  -0.021140  -0.021140  -0.002356
     4  H    0.382408  -0.020346  -0.021140   0.608901  -0.021140  -0.002356
     5  H    0.382408  -0.020346  -0.021140  -0.021140   0.608901   0.001956
     6  H   -0.020346   0.382408  -0.002356  -0.002356   0.001956   0.608901
     7  H   -0.020346   0.382408  -0.002356   0.001956  -0.002356  -0.021140
     8  H   -0.020345   0.382409   0.001956  -0.002356  -0.002356  -0.021140
               7          8
     1  C   -0.020346  -0.020345
     2  C    0.382408   0.382409
     3  H   -0.002356   0.001956
     4  H    0.001956  -0.002356
     5  H   -0.002356  -0.002356
     6  H   -0.021140  -0.021140
     7  H    0.608901  -0.021140
     8  H   -0.021140   0.608900
 Mulliken charges:
               1
     1  C   -0.222221
     2  C   -0.222221
     3  H    0.074074
     4  H    0.074074
     5  H    0.074074
     6  H    0.074074
     7  H    0.074074
     8  H    0.074074
 Sum of Mulliken charges =   0.00000
 Mulliken charges with hydrogens summed into heavy atoms:
               1
     1  C    0.000000
     2  C    0.000000
 Electronic spatial extent (au):  <R**2>=            107.1414
 Charge=              0.0000 electrons
 Dipole moment (field-independent basis, Debye):
    X=              0.0000    Y=              0.0000    Z=              0.0000  Tot=              0.0000
 Quadrupole moment (field-independent basis, Debye-Ang):
   XX=            -13.9183   YY=            -14.1006   ZZ=            -13.7968
   XY=              0.1922   XZ=              0.0000   YZ=              0.0000
 Traceless Quadrupole moment (field-independent basis, Debye-Ang):
   XX=              0.0202   YY=             -0.1621   ZZ=              0.1418
   XY=              0.1922   XZ=              0.0000   YZ=              0.0000
 Octapole moment (field-independent basis, Debye-Ang**2):
  XXX=              0.0000  YYY=              0.0000  ZZZ=              0.0000  XYY=              0.0000
  XXY=              0.0000  XXZ=              0.0000  XZZ=              0.0000  YZZ=              0.0000
  YYZ=              0.0000  XYZ=              0.0000
 Hexadecapole moment (field-independent basis, Debye-Ang**3):
 XXXX=            -40.3793 YYYY=            -65.6366 ZZZZ=            -24.6956 XXXY=             12.7070
 XXXZ=             -1.4922 YYYX=             14.3345 YYYZ=              0.9439 ZZZX=              0.6964
 ZZZY=             -1.1009 XXYY=            -18.4060 XXZZ=            -10.5440 YYZZ=            -14.5617
 XXYZ=              0.1570 YYXZ=              0.7957 ZZXY=              3.8296
 N-N= 4.216961703580D+01 E-N=-2.659361418898D+02  KE= 7.757658557030D+01
 Symmetry AG   KE= 4.036368967374D+01
 Symmetry AU   KE= 3.721289589656D+01
 Calling FoFJK, ICntrl=      2127 FMM=F ISym2X=1 I1Cent= 0 IOpClX= 0 NMat=1 NMatS=1 NMatT=0.
 ***** Axes restored to original set *****
 -------------------------------------------------------------------
 Center     Atomic                   Forces (Hartrees/Bohr)
 Number     Number              X              Y              Z
 -------------------------------------------------------------------
      1        6          -0.000362229    0.000529335    0.000015558
      2        6           0.000362229   -0.000529335   -0.000015558
      3        1          -0.005899166    0.000408784    0.003046514
      4        1          -0.002087678    0.002834553   -0.005658531
      5        1           0.002370666    0.005657059    0.002605712
      6        1          -0.002370666   -0.005657059   -0.002605712
      7        1           0.002087678   -0.002834553    0.005658531
      8        1           0.005899166   -0.000408784   -0.003046514
 -------------------------------------------------------------------
 Cartesian Forces:  Max     0.005899166 RMS     0.003335220

 GradGradGradGradGradGradGradGradGradGradGradGradGradGradGradGradGradGrad
 Berny optimization.
 FormGI is forming the generalized inverse of G from B-inverse, IUseBI=4.
 Internal  Forces:  Max     0.011165171 RMS     0.003788065
 Search for a local minimum.
 Step number   1 out of a maximum of   38
 All quantities printed in internal units (Hartrees-Bohrs-Radians)
 Mixed Optimization -- RFO/linear search
 Second derivative matrix not updated -- first step.
 ITU=  0
     Eigenvalues ---    0.00280   0.05575   0.05575   0.05575   0.05575
     Eigenvalues ---    0.16000   0.16000   0.16000   0.16000   0.16000
     Eigenvalues ---    0.16000   0.28810   0.34549   0.34549   0.34549
     Eigenvalues ---    0.34549   0.34549   0.34549
 RFO step:  Lambda=-1.30061917D-03 EMin= 2.80064107D-03
 Linear search not attempted -- first point.
 Iteration  1 RMS(Cart)=  0.02064424 RMS(Int)=  0.00004537
 Iteration  2 RMS(Cart)=  0.00005624 RMS(Int)=  0.00002133
 Iteration  3 RMS(Cart)=  0.00000000 RMS(Int)=  0.00002133
 ClnCor:  largest displacement from symmetrization is 9.75D-09 for atom     7.
 Variable       Old X    -DE/DX   Delta X   Delta X   Delta X     New X
                                 (Linear)    (Quad)   (Total)
    R1        2.90400   0.01117   0.00000   0.03858   0.03858   2.94258
    R2        2.06413   0.00652   0.00000   0.01880   0.01880   2.08293
    R3        2.06413   0.00653   0.00000   0.01884   0.01884   2.08298
    R4        2.06413   0.00653   0.00000   0.01884   0.01884   2.08298
    R5        2.06413   0.00653   0.00000   0.01884   0.01884   2.08298
    R6        2.06413   0.00653   0.00000   0.01884   0.01884   2.08298
    R7        2.06413   0.00652   0.00000   0.01880   0.01880   2.08293
    A1        1.92692   0.00131   0.00000   0.00813   0.00810   1.93502
    A2        1.92692   0.00131   0.00000   0.00812   0.00808   1.93500
    A3        1.92691   0.00131   0.00000   0.00814   0.00810   1.93502
    A4        1.89407  -0.00135   0.00000  -0.00836  -0.00839   1.88568
    A5        1.89407  -0.00135   0.00000  -0.00838  -0.00841   1.88566
    A6        1.89407  -0.00136   0.00000  -0.00847  -0.00851   1.88557
    A7        1.92691   0.00131   0.00000   0.00814   0.00810   1.93502
    A8        1.92692   0.00131   0.00000   0.00812   0.00808   1.93500
    A9        1.92692   0.00131   0.00000   0.00813   0.00810   1.93502
   A10        1.89407  -0.00136   0.00000  -0.00847  -0.00851   1.88557
   A11        1.89407  -0.00135   0.00000  -0.00838  -0.00841   1.88566
   A12        1.89407  -0.00135   0.00000  -0.00836  -0.00839   1.88568
    D1        1.04720   0.00000   0.00000  -0.00004  -0.00004   1.04716
    D2       -1.04720   0.00000   0.00000   0.00005   0.00005  -1.04714
    D3        3.14159   0.00000   0.00000   0.00000   0.00000   3.14159
    D4       -1.04720  -0.00001   0.00000  -0.00009  -0.00009  -1.04729
    D5        3.14159   0.00000   0.00000   0.00000   0.00000   3.14159
    D6        1.04720   0.00000   0.00000  -0.00005  -0.00005   1.04714
    D7        3.14159   0.00000   0.00000   0.00000   0.00000   3.14159
    D8        1.04720   0.00001   0.00000   0.00009   0.00009   1.04729
    D9       -1.04720   0.00000   0.00000   0.00004   0.00004  -1.04716
         Item               Value     Threshold  Converged?
 Maximum Force            0.011165     0.000450     NO 
 RMS     Force            0.003788     0.000300     NO 
 Maximum Displacement     0.040772     0.001800     NO 
 RMS     Displacement     0.020673     0.001200     NO 
 Predicted change in Energy=-6.531929D-04
 GradGradGradGradGradGradGradGradGradGradGradGradGradGradGradGradGradGrad

                          Input orientation:                          
 ---------------------------------------------------------------------
 Center     Atomic      Atomic             Coordinates (Angstroms)
 Number     Number       Type             X           Y           Z
 ---------------------------------------------------------------------
      1          6           0       -1.775316    1.613701    0.000010
      2          6           0       -0.942864    0.297749   -0.000010
      3          1           0       -2.718961    1.481370    0.554042
      4          1           0       -2.023795    1.921132   -1.028936
      5          1           0       -1.212837    2.434125    0.474882
      6          1           0       -1.505343   -0.522675   -0.474882
      7          1           0       -0.694385   -0.009682    1.028936
      8          1           0        0.000781    0.430080   -0.554042
 ---------------------------------------------------------------------
                    Distance matrix (angstroms):
                    1          2          3          4          5
     1  C    0.000000
     2  C    1.557147   0.000000
     3  H    1.102238   2.205097   0.000000
     4  H    1.102264   2.205102   1.783946   0.000000
     5  H    1.102263   2.205110   1.783933   1.783896   0.000000
     6  H    2.205110   1.102263   2.558857   2.558899   3.119340
     7  H    2.205102   1.102264   2.558841   3.119329   2.558899
     8  H    2.205097   1.102238   3.119303   2.558841   2.558857
                    6          7          8
     6  H    0.000000
     7  H    1.783896   0.000000
     8  H    1.783933   1.783946   0.000000
 Stoichiometry    C2H6
 Framework group  CI[X(C2H6)]
 Deg. of freedom     9
 Full point group                 CI      NOp   2
 Largest Abelian subgroup         CI      NOp   2
 Largest concise Abelian subgroup CI      NOp   2
                         Standard orientation:                         
 ---------------------------------------------------------------------
 Center     Atomic      Atomic             Coordinates (Angstroms)
 Number     Number       Type             X           Y           Z
 ---------------------------------------------------------------------
      1          6           0       -0.416226    0.657976    0.000010
      2          6           0        0.416226   -0.657976   -0.000010
      3          1           0       -1.359871    0.525645    0.554042
      4          1           0       -0.664705    0.965407   -1.028936
      5          1           0        0.146253    1.478400    0.474882
      6          1           0       -0.146253   -1.478400   -0.474882
      7          1           0        0.664705   -0.965407    1.028936
      8          1           0        1.359871   -0.525645   -0.554042
 ---------------------------------------------------------------------
 Rotational constants (GHZ):     78.7859569     19.4001089     19.3999462
 Standard basis: STO-3G (5D, 7F)
 There are     8 symmetry adapted cartesian basis functions of AG  symmetry.
 There are     8 symmetry adapted cartesian basis functions of AU  symmetry.
 There are     8 symmetry adapted basis functions of AG  symmetry.
 There are     8 symmetry adapted basis functions of AU  symmetry.
    16 basis functions,    48 primitive gaussians,    16 cartesian basis functions
     9 alpha electrons        9 beta electrons
       nuclear repulsion energy        41.6860462897 Hartrees.
 NAtoms=    8 NActive=    8 NUniq=    4 SFac= 4.00D+00 NAtFMM=   60 NAOKFM=F Big=F
 Integral buffers will be    131072 words long.
 Raffenetti 2 integral format.
 Two-electron integral symmetry is turned on.
 One-electron integrals computed using PRISM.
 NBasis=    16 RedAO= T EigKep=  1.53D-01  NBF=     8     8
 NBsUse=    16 1.00D-06 EigRej= -1.00D+00 NBFU=     8     8
 Initial guess from the checkpoint file:  "/scr/Gau-24577.chk"
 B after Tr=     0.000000    0.000000    0.000000
         Rot=    1.000000   -0.000002   -0.000001   -0.000002 Ang=   0.00 deg.
 Initial guess orbital symmetries:
       Occupied  (AU) (AG) (AG) (AU) (AU) (AU) (AG) (AG) (AG)
       Virtual   (AG) (AG) (AG) (AU) (AU) (AU) (AU)
 ExpMin= 1.69D-01 ExpMax= 7.16D+01 ExpMxC= 7.16D+01 IAcc=1 IRadAn=         1 AccDes= 0.00D+00
 Harris functional with IExCor=  402 and IRadAn=       1 diagonalized for initial guess.
 HarFok:  IExCor=  402 AccDes= 0.00D+00 IRadAn=         1 IDoV= 1 UseB2=F ITyADJ=14
 ICtDFT=  3500011 ScaDFX=  1.000000  1.000000  1.000000  1.000000
 FoFCou: FMM=F IPFlag=           0 FMFlag=      100000 FMFlg1=           0
         NFxFlg=           0 DoJE=T BraDBF=F KetDBF=T FulRan=T
         wScrn=  0.000000 ICntrl=     500 IOpCl=  0 I1Cent=   200000004 NGrid=           0
         NMat0=    1 NMatS0=      1 NMatT0=    0 NMatD0=    1 NMtDS0=    0 NMtDT0=    0
 Petite list used in FoFCou.
 Keep R1 ints in memory in symmetry-blocked form, NReq=889161.
 Requested convergence on RMS density matrix=1.00D-08 within 128 cycles.
 Requested convergence on MAX density matrix=1.00D-06.
 Requested convergence on             energy=1.00D-06.
 No special actions if energy rises.
 Integral accuracy reduced to 1.0D-05 until final iterations.
 Initial convergence to 1.0D-05 achieved.  Increase integral accuracy.
 SCF Done:  E(RB3LYP) =  -78.8858648052     A.U. after    9 cycles
            NFock=  9  Conv=0.49D-09     -V/T= 2.0177
 Calling FoFJK, ICntrl=      2127 FMM=F ISym2X=1 I1Cent= 0 IOpClX= 0 NMat=1 NMatS=1 NMatT=0.
 ***** Axes restored to original set *****
 -------------------------------------------------------------------
 Center     Atomic                   Forces (Hartrees/Bohr)
 Number     Number              X              Y              Z
 -------------------------------------------------------------------
      1        6           0.000736189   -0.001160219   -0.000001774
      2        6          -0.000736189    0.001160219    0.000001774
      3        1           0.001066235   -0.000401575   -0.000436310
      4        1           0.000511044   -0.000751665    0.000820296
      5        1          -0.000130852   -0.001156103   -0.000376798
      6        1           0.000130852    0.001156103    0.000376798
      7        1          -0.000511044    0.000751665   -0.000820296
      8        1          -0.001066235    0.000401575    0.000436310
 -------------------------------------------------------------------
 Cartesian Forces:  Max     0.001160219 RMS     0.000728657

 GradGradGradGradGradGradGradGradGradGradGradGradGradGradGradGradGradGrad
 Berny optimization.
 Using GEDIIS/GDIIS optimizer.
 FormGI is forming the generalized inverse of G from B-inverse, IUseBI=4.
 Internal  Forces:  Max     0.004098972 RMS     0.000995509
 Search for a local minimum.
 Step number   2 out of a maximum of   38
 All quantities printed in internal units (Hartrees-Bohrs-Radians)
 Mixed Optimization -- En-DIIS/RFO-DIIS
 Update second derivatives using D2CorX and points    1    2
 DE= -4.72D-04 DEPred=-6.53D-04 R= 7.23D-01
 TightC=F SS=  1.41D+00  RLast= 6.66D-02 DXNew= 5.0454D-01 1.9980D-01
 Trust test= 7.23D-01 RLast= 6.66D-02 DXMaxT set to 3.00D-01
 ITU=  1  0
 Use linear search instead of GDIIS.
     Eigenvalues ---    0.00280   0.05490   0.05490   0.05490   0.05490
     Eigenvalues ---    0.16000   0.16000   0.16000   0.16000   0.16000
     Eigenvalues ---    0.16635   0.30933   0.34549   0.34549   0.34549
     Eigenvalues ---    0.34549   0.34549   0.39149
 RFO step:  Lambda=-9.67340948D-06 EMin= 2.80064107D-03
 Quartic linear search produced a step of -0.21152.
 Iteration  1 RMS(Cart)=  0.00566863 RMS(Int)=  0.00000419
 Iteration  2 RMS(Cart)=  0.00000370 RMS(Int)=  0.00000202
 Iteration  3 RMS(Cart)=  0.00000000 RMS(Int)=  0.00000202
 ClnCor:  largest displacement from symmetrization is 5.47D-09 for atom     8.
 Variable       Old X    -DE/DX   Delta X   Delta X   Delta X     New X
                                 (Linear)    (Quad)   (Total)
    R1        2.94258  -0.00410  -0.00816  -0.00301  -0.01117   2.93141
    R2        2.08293  -0.00109  -0.00398   0.00154  -0.00244   2.08049
    R3        2.08298  -0.00109  -0.00399   0.00154  -0.00245   2.08053
    R4        2.08298  -0.00109  -0.00399   0.00154  -0.00244   2.08053
    R5        2.08298  -0.00109  -0.00399   0.00154  -0.00244   2.08053
    R6        2.08298  -0.00109  -0.00399   0.00154  -0.00245   2.08053
    R7        2.08293  -0.00109  -0.00398   0.00154  -0.00244   2.08049
    A1        1.93502  -0.00055  -0.00171  -0.00104  -0.00275   1.93227
    A2        1.93500  -0.00055  -0.00171  -0.00105  -0.00276   1.93225
    A3        1.93502  -0.00055  -0.00171  -0.00104  -0.00275   1.93226
    A4        1.88568   0.00058   0.00177   0.00110   0.00288   1.88856
    A5        1.88566   0.00058   0.00178   0.00110   0.00288   1.88854
    A6        1.88557   0.00058   0.00180   0.00110   0.00290   1.88846
    A7        1.93502  -0.00055  -0.00171  -0.00104  -0.00275   1.93226
    A8        1.93500  -0.00055  -0.00171  -0.00105  -0.00276   1.93225
    A9        1.93502  -0.00055  -0.00171  -0.00104  -0.00275   1.93227
   A10        1.88557   0.00058   0.00180   0.00110   0.00290   1.88846
   A11        1.88566   0.00058   0.00178   0.00110   0.00288   1.88854
   A12        1.88568   0.00058   0.00177   0.00110   0.00288   1.88856
    D1        1.04716   0.00000   0.00001   0.00000   0.00000   1.04716
    D2       -1.04714   0.00000  -0.00001   0.00000  -0.00001  -1.04715
    D3        3.14159   0.00000   0.00000   0.00000   0.00000   3.14159
    D4       -1.04729   0.00000   0.00002  -0.00001   0.00001  -1.04727
    D5        3.14159   0.00000   0.00000   0.00000   0.00000   3.14159
    D6        1.04714   0.00000   0.00001   0.00000   0.00001   1.04715
    D7        3.14159   0.00000   0.00000   0.00000   0.00000   3.14159
    D8        1.04729   0.00000  -0.00002   0.00001  -0.00001   1.04727
    D9       -1.04716   0.00000  -0.00001   0.00000   0.00000  -1.04716
         Item               Value     Threshold  Converged?
 Maximum Force            0.004099     0.000450     NO 
 RMS     Force            0.000996     0.000300     NO 
 Maximum Displacement     0.010105     0.001800     NO 
 RMS     Displacement     0.005670     0.001200     NO 
 Predicted change in Energy=-3.942167D-05
 GradGradGradGradGradGradGradGradGradGradGradGradGradGradGradGradGradGrad

                          Input orientation:                          
 ---------------------------------------------------------------------
 Center     Atomic      Atomic             Coordinates (Angstroms)
 Number     Number       Type             X           Y           Z
 ---------------------------------------------------------------------
      1          6           0       -1.773735    1.611203    0.000010
      2          6           0       -0.944445    0.300247   -0.000010
      3          1           0       -2.715528    1.476150    0.553971
      4          1           0       -2.020450    1.915845   -1.028804
      5          1           0       -1.209593    2.428778    0.474827
      6          1           0       -1.508587   -0.517328   -0.474827
      7          1           0       -0.697730   -0.004395    1.028804
      8          1           0       -0.002652    0.435300   -0.553971
 ---------------------------------------------------------------------
                    Distance matrix (angstroms):
                    1          2          3          4          5
     1  C    0.000000
     2  C    1.551234   0.000000
     3  H    1.100948   2.196901   0.000000
     4  H    1.100969   2.196899   1.783716   0.000000
     5  H    1.100970   2.196911   1.783706   1.783675   0.000000
     6  H    2.196911   1.100970   2.547368   2.547397   3.109788
     7  H    2.196899   1.100969   2.547350   3.109770   2.547397
     8  H    2.196901   1.100948   3.109758   2.547350   2.547368
                    6          7          8
     6  H    0.000000
     7  H    1.783675   0.000000
     8  H    1.783706   1.783716   0.000000
 Stoichiometry    C2H6
 Framework group  CI[X(C2H6)]
 Deg. of freedom     9
 Full point group                 CI      NOp   2
 Largest Abelian subgroup         CI      NOp   2
 Largest concise Abelian subgroup CI      NOp   2
                         Standard orientation:                         
 ---------------------------------------------------------------------
 Center     Atomic      Atomic             Coordinates (Angstroms)
 Number     Number       Type             X           Y           Z
 ---------------------------------------------------------------------
      1          6           0       -0.414645    0.655478    0.000010
      2          6           0        0.414645   -0.655478   -0.000010
      3          1           0       -1.356438    0.520425    0.553971
      4          1           0       -0.661360    0.960120   -1.028804
      5          1           0        0.149497    1.473053    0.474827
      6          1           0       -0.149497   -1.473053   -0.474827
      7          1           0        0.661360   -0.960120    1.028804
      8          1           0        1.356438   -0.520425   -0.553971
 ---------------------------------------------------------------------
 Rotational constants (GHZ):     78.8059504     19.5497364     19.5496036
 Standard basis: STO-3G (5D, 7F)
 There are     8 symmetry adapted cartesian basis functions of AG  symmetry.
 There are     8 symmetry adapted cartesian basis functions of AU  symmetry.
 There are     8 symmetry adapted basis functions of AG  symmetry.
 There are     8 symmetry adapted basis functions of AU  symmetry.
    16 basis functions,    48 primitive gaussians,    16 cartesian basis functions
     9 alpha electrons        9 beta electrons
       nuclear repulsion energy        41.7925876915 Hartrees.
 NAtoms=    8 NActive=    8 NUniq=    4 SFac= 4.00D+00 NAtFMM=   60 NAOKFM=F Big=F
 Integral buffers will be    131072 words long.
 Raffenetti 2 integral format.
 Two-electron integral symmetry is turned on.
 One-electron integrals computed using PRISM.
 NBasis=    16 RedAO= T EigKep=  1.52D-01  NBF=     8     8
 NBsUse=    16 1.00D-06 EigRej= -1.00D+00 NBFU=     8     8
 Initial guess from the checkpoint file:  "/scr/Gau-24577.chk"
 B after Tr=     0.000000    0.000000    0.000000
         Rot=    1.000000    0.000000    0.000000    0.000000 Ang=   0.00 deg.
 Initial guess orbital symmetries:
       Occupied  (AU) (AG) (AG) (AU) (AU) (AU) (AG) (AG) (AG)
       Virtual   (AG) (AG) (AG) (AU) (AU) (AU) (AU)
 Keep R1 ints in memory in symmetry-blocked form, NReq=889161.
 Requested convergence on RMS density matrix=1.00D-08 within 128 cycles.
 Requested convergence on MAX density matrix=1.00D-06.
 Requested convergence on             energy=1.00D-06.
 No special actions if energy rises.
 SCF Done:  E(RB3LYP) =  -78.8859038090     A.U. after    5 cycles
            NFock=  5  Conv=0.53D-08     -V/T= 2.0176
 Calling FoFJK, ICntrl=      2127 FMM=F ISym2X=1 I1Cent= 0 IOpClX= 0 NMat=1 NMatS=1 NMatT=0.
 ***** Axes restored to original set *****
 -------------------------------------------------------------------
 Center     Atomic                   Forces (Hartrees/Bohr)
 Number     Number              X              Y              Z
 -------------------------------------------------------------------
      1        6          -0.000100275    0.000154531    0.000000980
      2        6           0.000100275   -0.000154531   -0.000000980
      3        1           0.000113677    0.000091580   -0.000090341
      4        1          -0.000008818    0.000019311    0.000175142
      5        1          -0.000143425   -0.000065710   -0.000080835
      6        1           0.000143425    0.000065710    0.000080835
      7        1           0.000008818   -0.000019311   -0.000175142
      8        1          -0.000113677   -0.000091580    0.000090341
 -------------------------------------------------------------------
 Cartesian Forces:  Max     0.000175142 RMS     0.000102451

 GradGradGradGradGradGradGradGradGradGradGradGradGradGradGradGradGradGrad
 Berny optimization.
 Using GEDIIS/GDIIS optimizer.
 FormGI is forming the generalized inverse of G from B-inverse, IUseBI=4.
 Internal  Forces:  Max     0.000243001 RMS     0.000100696
 Search for a local minimum.
 Step number   3 out of a maximum of   38
 All quantities printed in internal units (Hartrees-Bohrs-Radians)
 Mixed Optimization -- En-DIIS/RFO-DIIS
 Swapping is turned off.
 Update second derivatives using D2CorX and points    1    2    3
 DE= -3.90D-05 DEPred=-3.94D-05 R= 9.89D-01
 TightC=F SS=  1.41D+00  RLast= 1.60D-02 DXNew= 5.0454D-01 4.8009D-02
 Trust test= 9.89D-01 RLast= 1.60D-02 DXMaxT set to 3.00D-01
 ITU=  1  1  0
     Eigenvalues ---    0.00280   0.05519   0.05519   0.05519   0.05519
     Eigenvalues ---    0.16000   0.16000   0.16000   0.16000   0.16000
     Eigenvalues ---    0.17356   0.32963   0.34549   0.34549   0.34549
     Eigenvalues ---    0.34549   0.34549   0.36611
 En-DIIS/RFO-DIIS IScMMF=        0 using points:     3    2
 RFO step:  Lambda=-5.32987513D-07.
 DidBck=F Rises=F RFO-DIIS coefs:    0.96214    0.03786
 Iteration  1 RMS(Cart)=  0.00056892 RMS(Int)=  0.00000015
 Iteration  2 RMS(Cart)=  0.00000016 RMS(Int)=  0.00000003
 ClnCor:  largest displacement from symmetrization is 3.70D-10 for atom     7.
 Variable       Old X    -DE/DX   Delta X   Delta X   Delta X     New X
                                 (Linear)    (Quad)   (Total)
    R1        2.93141   0.00024   0.00042   0.00017   0.00059   2.93200
    R2        2.08049  -0.00016   0.00009  -0.00058  -0.00049   2.08000
    R3        2.08053  -0.00016   0.00009  -0.00058  -0.00049   2.08004
    R4        2.08053  -0.00016   0.00009  -0.00058  -0.00049   2.08004
    R5        2.08053  -0.00016   0.00009  -0.00058  -0.00049   2.08004
    R6        2.08053  -0.00016   0.00009  -0.00058  -0.00049   2.08004
    R7        2.08049  -0.00016   0.00009  -0.00058  -0.00049   2.08000
    A1        1.93227   0.00008   0.00010   0.00032   0.00042   1.93269
    A2        1.93225   0.00008   0.00010   0.00032   0.00042   1.93267
    A3        1.93226   0.00008   0.00010   0.00032   0.00042   1.93268
    A4        1.88856  -0.00008  -0.00011  -0.00033  -0.00044   1.88811
    A5        1.88854  -0.00008  -0.00011  -0.00033  -0.00044   1.88810
    A6        1.88846  -0.00008  -0.00011  -0.00033  -0.00044   1.88802
    A7        1.93226   0.00008   0.00010   0.00032   0.00042   1.93268
    A8        1.93225   0.00008   0.00010   0.00032   0.00042   1.93267
    A9        1.93227   0.00008   0.00010   0.00032   0.00042   1.93269
   A10        1.88846  -0.00008  -0.00011  -0.00033  -0.00044   1.88802
   A11        1.88854  -0.00008  -0.00011  -0.00033  -0.00044   1.88810
   A12        1.88856  -0.00008  -0.00011  -0.00033  -0.00044   1.88811
    D1        1.04716   0.00000   0.00000   0.00000   0.00000   1.04717
    D2       -1.04715   0.00000   0.00000   0.00000   0.00000  -1.04715
    D3        3.14159   0.00000   0.00000   0.00000   0.00000   3.14159
    D4       -1.04727   0.00000   0.00000   0.00000   0.00000  -1.04727
    D5        3.14159   0.00000   0.00000   0.00000   0.00000   3.14159
    D6        1.04715   0.00000   0.00000   0.00000   0.00000   1.04715
    D7        3.14159   0.00000   0.00000   0.00000   0.00000   3.14159
    D8        1.04727   0.00000   0.00000   0.00000   0.00000   1.04727
    D9       -1.04716   0.00000   0.00000   0.00000   0.00000  -1.04717
         Item               Value     Threshold  Converged?
 Maximum Force            0.000243     0.000450     YES
 RMS     Force            0.000101     0.000300     YES
 Maximum Displacement     0.001143     0.001800     YES
 RMS     Displacement     0.000569     0.001200     YES
 Predicted change in Energy=-5.104874D-07
 Optimization completed.
    -- Stationary point found.
                           ----------------------------
                           !   Optimized Parameters   !
                           ! (Angstroms and Degrees)  !
 --------------------------                            --------------------------
 ! Name  Definition              Value          Derivative Info.                !
 --------------------------------------------------------------------------------
 ! R1    R(1,2)                  1.5512         -DE/DX =    0.0002              !
 ! R2    R(1,3)                  1.1009         -DE/DX =   -0.0002              !
 ! R3    R(1,4)                  1.101          -DE/DX =   -0.0002              !
 ! R4    R(1,5)                  1.101          -DE/DX =   -0.0002              !
 ! R5    R(2,6)                  1.101          -DE/DX =   -0.0002              !
 ! R6    R(2,7)                  1.101          -DE/DX =   -0.0002              !
 ! R7    R(2,8)                  1.1009         -DE/DX =   -0.0002              !
 ! A1    A(2,1,3)              110.711          -DE/DX =    0.0001              !
 ! A2    A(2,1,4)              110.7095         -DE/DX =    0.0001              !
 ! A3    A(2,1,5)              110.7104         -DE/DX =    0.0001              !
 ! A4    A(3,1,4)              108.2063         -DE/DX =   -0.0001              !
 ! A5    A(3,1,5)              108.2053         -DE/DX =   -0.0001              !
 ! A6    A(4,1,5)              108.2011         -DE/DX =   -0.0001              !
 ! A7    A(1,2,6)              110.7104         -DE/DX =    0.0001              !
 ! A8    A(1,2,7)              110.7095         -DE/DX =    0.0001              !
 ! A9    A(1,2,8)              110.711          -DE/DX =    0.0001              !
 ! A10   A(6,2,7)              108.2011         -DE/DX =   -0.0001              !
 ! A11   A(6,2,8)              108.2053         -DE/DX =   -0.0001              !
 ! A12   A(7,2,8)              108.2063         -DE/DX =   -0.0001              !
 ! D1    D(3,1,2,6)             59.9981         -DE/DX =    0.0                 !
 ! D2    D(3,1,2,7)            -59.9975         -DE/DX =    0.0                 !
 ! D3    D(3,1,2,8)            180.0            -DE/DX =    0.0                 !
 ! D4    D(4,1,2,6)            -60.0044         -DE/DX =    0.0                 !
 ! D5    D(4,1,2,7)            180.0            -DE/DX =    0.0                 !
 ! D6    D(4,1,2,8)             59.9975         -DE/DX =    0.0                 !
 ! D7    D(5,1,2,6)            180.0            -DE/DX =    0.0                 !
 ! D8    D(5,1,2,7)             60.0044         -DE/DX =    0.0                 !
 ! D9    D(5,1,2,8)            -59.9981         -DE/DX =    0.0                 !
 --------------------------------------------------------------------------------
 GradGradGradGradGradGradGradGradGradGradGradGradGradGradGradGradGradGrad

                          Input orientation:                          
 ---------------------------------------------------------------------
 Center     Atomic      Atomic             Coordinates (Angstroms)
 Number     Number       Type             X           Y           Z
 ---------------------------------------------------------------------
      1          6           0       -1.773735    1.611203    0.000010
      2          6           0       -0.944445    0.300247   -0.000010
      3          1           0       -2.715528    1.476150    0.553971
      4          1           0       -2.020450    1.915845   -1.028804
      5          1           0       -1.209593    2.428778    0.474827
      6          1           0       -1.508587   -0.517328   -0.474827
      7          1           0       -0.697730   -0.004395    1.028804
      8          1           0       -0.002652    0.435300   -0.553971
 ---------------------------------------------------------------------
                    Distance matrix (angstroms):
                    1          2          3          4          5
     1  C    0.000000
     2  C    1.551234   0.000000
     3  H    1.100948   2.196901   0.000000
     4  H    1.100969   2.196899   1.783716   0.000000
     5  H    1.100970   2.196911   1.783706   1.783675   0.000000
     6  H    2.196911   1.100970   2.547368   2.547397   3.109788
     7  H    2.196899   1.100969   2.547350   3.109770   2.547397
     8  H    2.196901   1.100948   3.109758   2.547350   2.547368
                    6          7          8
     6  H    0.000000
     7  H    1.783675   0.000000
     8  H    1.783706   1.783716   0.000000
 Stoichiometry    C2H6
 Framework group  CI[X(C2H6)]
 Deg. of freedom     9
 Full point group                 CI      NOp   2
 Largest Abelian subgroup         CI      NOp   2
 Largest concise Abelian subgroup CI      NOp   2
                         Standard orientation:                         
 ---------------------------------------------------------------------
 Center     Atomic      Atomic             Coordinates (Angstroms)
 Number     Number       Type             X           Y           Z
 ---------------------------------------------------------------------
      1          6           0       -0.414645    0.655478    0.000010
      2          6           0        0.414645   -0.655478   -0.000010
      3          1           0       -1.356438    0.520425    0.553971
      4          1           0       -0.661360    0.960120   -1.028804
      5          1           0        0.149497    1.473053    0.474827
      6          1           0       -0.149497   -1.473053   -0.474827
      7          1           0        0.661360   -0.960120    1.028804
      8          1           0        1.356438   -0.520425   -0.553971
 ---------------------------------------------------------------------
 Rotational constants (GHZ):     78.8059504     19.5497364     19.5496036

 **********************************************************************

            Population analysis using the SCF density.

 **********************************************************************

 Orbital symmetries:
       Occupied  (AU) (AG) (AG) (AU) (AU) (AU) (AG) (AG) (AG)
       Virtual   (AU) (AU) (AU) (AG) (AU) (AG) (AG)
 The electronic state is 1-AG.
 Alpha  occ. eigenvalues --  -10.00380 -10.00278  -0.71209  -0.58303  -0.40020
 Alpha  occ. eigenvalues --   -0.40018  -0.32273  -0.31051  -0.31049
 Alpha virt. eigenvalues --    0.40493   0.40495   0.41884   0.46732   0.50280
 Alpha virt. eigenvalues --    0.50947   0.50951
          Condensed to atoms (all electrons):
               1          2          3          4          5          6
     1  C    4.773525   0.360773   0.380096   0.380089   0.380089  -0.019529
     2  C    0.360773   4.773525  -0.019529  -0.019530  -0.019529   0.380089
     3  H    0.380096  -0.019529   0.611915  -0.021006  -0.021007  -0.002133
     4  H    0.380089  -0.019530  -0.021006   0.611929  -0.021009  -0.002133
     5  H    0.380089  -0.019529  -0.021007  -0.021009   0.611929   0.001801
     6  H   -0.019529   0.380089  -0.002133  -0.002133   0.001801   0.611929
     7  H   -0.019530   0.380089  -0.002133   0.001801  -0.002133  -0.021009
     8  H   -0.019529   0.380096   0.001801  -0.002133  -0.002133  -0.021007
               7          8
     1  C   -0.019530  -0.019529
     2  C    0.380089   0.380096
     3  H   -0.002133   0.001801
     4  H    0.001801  -0.002133
     5  H   -0.002133  -0.002133
     6  H   -0.021009  -0.021007
     7  H    0.611929  -0.021006
     8  H   -0.021006   0.611915
 Mulliken charges:
               1
     1  C   -0.215984
     2  C   -0.215984
     3  H    0.071998
     4  H    0.071993
     5  H    0.071993
     6  H    0.071993
     7  H    0.071993
     8  H    0.071998
 Sum of Mulliken charges =   0.00000
 Mulliken charges with hydrogens summed into heavy atoms:
               1
     1  C    0.000000
     2  C    0.000000
 Electronic spatial extent (au):  <R**2>=            108.6363
 Charge=              0.0000 electrons
 Dipole moment (field-independent basis, Debye):
    X=              0.0000    Y=              0.0000    Z=              0.0000  Tot=              0.0000
 Quadrupole moment (field-independent basis, Debye-Ang):
   XX=            -13.9073   YY=            -14.0512   ZZ=            -13.8113
   XY=              0.1519   XZ=             -0.0001   YZ=             -0.0001
 Traceless Quadrupole moment (field-independent basis, Debye-Ang):
   XX=              0.0159   YY=             -0.1279   ZZ=              0.1120
   XY=              0.1519   XZ=             -0.0001   YZ=             -0.0001
 Octapole moment (field-independent basis, Debye-Ang**2):
  XXX=              0.0000  YYY=              0.0000  ZZZ=              0.0000  XYY=              0.0000
  XXY=              0.0000  XXZ=              0.0000  XZZ=              0.0000  YZZ=              0.0000
  YYZ=              0.0000  XYZ=              0.0000
 Hexadecapole moment (field-independent basis, Debye-Ang**3):
 XXXX=            -40.8885 YYYY=            -66.6875 ZZZZ=            -24.8866 XXXY=             12.9705
 XXXZ=             -1.5376 YYYX=             14.6550 YYYZ=              0.9725 ZZZX=              0.7178
 ZZZY=             -1.1347 XXYY=            -18.6926 XXZZ=            -10.6510 YYZZ=            -14.7504
 XXYZ=              0.1619 YYXZ=              0.8201 ZZXY=              3.9034
 N-N= 4.179258769146D+01 E-N=-2.651803515641D+02  KE= 7.752353353746D+01
 Symmetry AG   KE= 4.031849193747D+01
 Symmetry AU   KE= 3.720504160000D+01
 1\1\GINC-N0292\FOpt\RB3LYP\STO-3G\C2H6\TAIYUPAN\23-Feb-2017\0\\#n B3LY
 P/STO-3G Opt\\CH3_B3LYP/STO-3G\\0,1\C,-1.7737345608,1.6112033775,0.000
 0096409\C,-0.9444454392,0.3002466225,-0.0000096409\H,-2.7155279273,1.4
 761495096,0.5539705915\H,-2.0204503714,1.915845481,-1.0288043088\H,-1.
 2095927828,2.4287782136,0.4748268806\H,-1.5085872172,-0.5173282136,-0.
 4748268806\H,-0.6977296286,-0.004395481,1.0288043088\H,-0.0026520727,0
 .4353004904,-0.5539705915\\Version=ES64L-G09RevE.01\State=1-AG\HF=-78.
 8859038\RMSD=5.283e-09\RMSF=1.025e-04\Dipole=0.,0.,0.\Quadrupole=0.011
 8557,-0.095118,0.0832623,0.1129104,-0.0000699,-0.0000439\PG=CI [X(C2H6
 )]\\@


 EVANS BOLDLY PUT 50 ATM. OF ETHYLENE IN A CELL WITH 25 ATM. OF OXYGEN.
 THE APPARATUS SUBSEQUENTLY BLEW UP, BUT LUCKILY NOT BEFORE HE
 OBTAINED THE SPECTRA SHOWN IN FIGURE 8.
 A.J.MERER AND R.S.MULLIKEN, CHEM.REV. 69, 645 (1969)
 Job cpu time:       0 days  0 hours  0 minutes 23.4 seconds.
 File lengths (MBytes):  RWF=      5 Int=      0 D2E=      0 Chk=      1 Scr=      1
 Normal termination of Gaussian 09 at Thu Feb 23 18:25:38 2017.
