 Entering Gaussian System, Link 0=g09
 Input=CH_C_S.com
 Output=CH_C_S.log
 Initial command:
 /sw/contrib/gaussian/g09/E01/g09/l1.exe "/scr/Gau-21520.inp" -scrdir="/scr/"
 Entering Link 1 = /sw/contrib/gaussian/g09/E01/g09/l1.exe PID=     21521.
  
 Copyright (c) 1988,1990,1992,1993,1995,1998,2003,2009,2015,
            Gaussian, Inc.  All Rights Reserved.
  
 This is part of the Gaussian(R) 09 program.  It is based on
 the Gaussian(R) 03 system (copyright 2003, Gaussian, Inc.),
 the Gaussian(R) 98 system (copyright 1998, Gaussian, Inc.),
 the Gaussian(R) 94 system (copyright 1995, Gaussian, Inc.),
 the Gaussian 92(TM) system (copyright 1992, Gaussian, Inc.),
 the Gaussian 90(TM) system (copyright 1990, Gaussian, Inc.),
 the Gaussian 88(TM) system (copyright 1988, Gaussian, Inc.),
 the Gaussian 86(TM) system (copyright 1986, Carnegie Mellon
 University), and the Gaussian 82(TM) system (copyright 1983,
 Carnegie Mellon University). Gaussian is a federally registered
 trademark of Gaussian, Inc.
  
 This software contains proprietary and confidential information,
 including trade secrets, belonging to Gaussian, Inc.
  
 This software is provided under written license and may be
 used, copied, transmitted, or stored only in accord with that
 written license.
  
 The following legend is applicable only to US Government
 contracts under FAR:
  
                    RESTRICTED RIGHTS LEGEND
  
 Use, reproduction and disclosure by the US Government is
 subject to restrictions as set forth in subparagraphs (a)
 and (c) of the Commercial Computer Software - Restricted
 Rights clause in FAR 52.227-19.
  
 Gaussian, Inc.
 340 Quinnipiac St., Bldg. 40, Wallingford CT 06492
  
  
 ---------------------------------------------------------------
 Warning -- This program may not be used in any manner that
 competes with the business of Gaussian, Inc. or will provide
 assistance to any competitor of Gaussian, Inc.  The licensee
 of this program is prohibited from giving any competitor of
 Gaussian, Inc. access to this program.  By using this program,
 the user acknowledges that Gaussian, Inc. is engaged in the
 business of creating and licensing software in the field of
 computational chemistry and represents and warrants to the
 licensee that it is not a competitor of Gaussian, Inc. and that
 it will not use this program in any manner prohibited above.
 ---------------------------------------------------------------
  

 Cite this work as:
 Gaussian 09, Revision E.01,
 M. J. Frisch, G. W. Trucks, H. B. Schlegel, G. E. Scuseria, 
 M. A. Robb, J. R. Cheeseman, G. Scalmani, V. Barone, B. Mennucci, 
 G. A. Petersson, H. Nakatsuji, M. Caricato, X. Li, H. P. Hratchian, 
 A. F. Izmaylov, J. Bloino, G. Zheng, J. L. Sonnenberg, M. Hada, 
 M. Ehara, K. Toyota, R. Fukuda, J. Hasegawa, M. Ishida, T. Nakajima, 
 Y. Honda, O. Kitao, H. Nakai, T. Vreven, J. A. Montgomery, Jr., 
 J. E. Peralta, F. Ogliaro, M. Bearpark, J. J. Heyd, E. Brothers, 
 K. N. Kudin, V. N. Staroverov, T. Keith, R. Kobayashi, J. Normand, 
 K. Raghavachari, A. Rendell, J. C. Burant, S. S. Iyengar, J. Tomasi, 
 M. Cossi, N. Rega, J. M. Millam, M. Klene, J. E. Knox, J. B. Cross, 
 V. Bakken, C. Adamo, J. Jaramillo, R. Gomperts, R. E. Stratmann, 
 O. Yazyev, A. J. Austin, R. Cammi, C. Pomelli, J. W. Ochterski, 
 R. L. Martin, K. Morokuma, V. G. Zakrzewski, G. A. Voth, 
 P. Salvador, J. J. Dannenberg, S. Dapprich, A. D. Daniels, 
 O. Farkas, J. B. Foresman, J. V. Ortiz, J. Cioslowski, 
 and D. J. Fox, Gaussian, Inc., Wallingford CT, 2013.
 
 ******************************************
 Gaussian 09:  ES64L-G09RevE.01 30-Nov-2015
                23-Feb-2017 
 ******************************************
 %NProcShared=8
 Will use up to    8 processors via shared memory.
 ------------------
 #n CCSD/STO-3G Opt
 ------------------
 1/18=20,19=15,38=1/1,3;
 2/9=110,12=2,17=6,18=5,40=1/2;
 3/6=3,11=9,16=1,25=1,30=1,71=1/1,2,3;
 4//1;
 5/5=2,38=5/2;
 8/6=4,9=120000,10=1/1,4;
 9/5=7,15=1/13;
 11/28=-8,29=200,42=3/11;
 10/5=6/2;
 6/7=2,8=2,9=2,10=2/1;
 7/12=7/1,2,3,16;
 1/18=20,19=15/3(2);
 2/9=110/2;
 99//99;
 2/9=110/2;
 3/6=3,11=9,16=1,25=1,30=1,71=1/1,2,3;
 4/5=5,16=3,69=1/1;
 5/5=2,38=5/2;
 8/6=4,9=120000,10=1/1,4;
 9/5=7,15=1/13;
 11/28=-8,29=200,42=3/11;
 10/5=6/2;
 7/12=7/1,2,3,16;
 1/18=20,19=15/3(-9);
 2/9=110/2;
 6/7=2,8=2,9=2,10=2/1;
 99//99;
 --------------
 CH_CCSD/STO-3G
 --------------
 Symbolic Z-matrix:
 Charge =  0 Multiplicity = 1
 C                     0.81212   0.92205   2.25756 
 C                    -0.25466   0.80282   1.70927 
 H                     1.74883   1.02674   2.739 
 H                    -1.19137   0.69814   1.22782 
 

 GradGradGradGradGradGradGradGradGradGradGradGradGradGradGradGradGradGrad
 Berny optimization.
 Initialization pass.
                           ----------------------------
                           !    Initial Parameters    !
                           ! (Angstroms and Degrees)  !
 --------------------------                            --------------------------
 ! Name  Definition              Value          Derivative Info.                !
 --------------------------------------------------------------------------------
 ! R1    R(1,2)                  1.2053         estimate D2E/DX2                !
 ! R2    R(1,3)                  1.0584         estimate D2E/DX2                !
 ! R3    R(2,4)                  1.0584         estimate D2E/DX2                !
 ! A1    L(2,1,3,-2,-1)        180.0001         estimate D2E/DX2                !
 ! A2    L(1,2,4,-2,-1)        180.0006         estimate D2E/DX2                !
 ! A3    L(2,1,3,-3,-2)        180.0002         estimate D2E/DX2                !
 ! A4    L(1,2,4,-3,-2)        180.0008         estimate D2E/DX2                !
 --------------------------------------------------------------------------------
 Trust Radius=3.00D-01 FncErr=1.00D-07 GrdErr=1.00D-07
 Number of steps in this run=     20 maximum allowed number of steps=    100.
 GradGradGradGradGradGradGradGradGradGradGradGradGradGradGradGradGradGrad

                          Input orientation:                          
 ---------------------------------------------------------------------
 Center     Atomic      Atomic             Coordinates (Angstroms)
 Number     Number       Type             X           Y           Z
 ---------------------------------------------------------------------
      1          6           0        0.812120    0.922050    2.257560
      2          6           0       -0.254660    0.802820    1.709270
      3          1           0        1.748830    1.026740    2.739000
      4          1           0       -1.191370    0.698140    1.227820
 ---------------------------------------------------------------------
                    Distance matrix (angstroms):
                    1          2          3          4
     1  C    0.000000
     2  C    1.205345   0.000000
     3  H    1.058381   2.263726   0.000000
     4  H    2.263730   1.058384   3.322111   0.000000
 Stoichiometry    C2H2
 Framework group  C*V[C*(HCCH)]
 Deg. of freedom     3
 Full point group                 C*V     NOp   4
 Largest Abelian subgroup         C2V     NOp   4
 Largest concise Abelian subgroup C1      NOp   1
                         Standard orientation:                         
 ---------------------------------------------------------------------
 Center     Atomic      Atomic             Coordinates (Angstroms)
 Number     Number       Type             X           Y           Z
 ---------------------------------------------------------------------
      1          6           0        0.000000    0.000000    0.602673
      2          6           0        0.000000    0.000000   -0.602672
      3          1           0        0.000000    0.000000    1.661054
      4          1           0        0.000000    0.000000   -1.661057
 ---------------------------------------------------------------------
 Rotational constants (GHZ):      0.0000000     35.3943217     35.3943217
 Standard basis: STO-3G (5D, 7F)
 There are     8 symmetry adapted cartesian basis functions of A1  symmetry.
 There are     0 symmetry adapted cartesian basis functions of A2  symmetry.
 There are     2 symmetry adapted cartesian basis functions of B1  symmetry.
 There are     2 symmetry adapted cartesian basis functions of B2  symmetry.
 There are     8 symmetry adapted basis functions of A1  symmetry.
 There are     0 symmetry adapted basis functions of A2  symmetry.
 There are     2 symmetry adapted basis functions of B1  symmetry.
 There are     2 symmetry adapted basis functions of B2  symmetry.
    12 basis functions,    36 primitive gaussians,    12 cartesian basis functions
     7 alpha electrons        7 beta electrons
       nuclear repulsion energy        24.7692072136 Hartrees.
 NAtoms=    4 NActive=    4 NUniq=    4 SFac= 1.00D+00 NAtFMM=   60 NAOKFM=F Big=F
 Integral buffers will be    131072 words long.
 Raffenetti 1 integral format.
 Two-electron integral symmetry is turned on.
 One-electron integrals computed using PRISM.
 NBasis=    12 RedAO= T EigKep=  2.73D-01  NBF=     8     0     2     2
 NBsUse=    12 1.00D-06 EigRej= -1.00D+00 NBFU=     8     0     2     2
 ExpMin= 1.69D-01 ExpMax= 7.16D+01 ExpMxC= 7.16D+01 IAcc=1 IRadAn=         1 AccDes= 0.00D+00
 Harris functional with IExCor=  205 and IRadAn=       1 diagonalized for initial guess.
 HarFok:  IExCor=  205 AccDes= 0.00D+00 IRadAn=         1 IDoV= 1 UseB2=F ITyADJ=14
 ICtDFT=  3500011 ScaDFX=  1.000000  1.000000  1.000000  1.000000
 FoFCou: FMM=F IPFlag=           0 FMFlag=      100000 FMFlg1=           0
         NFxFlg=           0 DoJE=T BraDBF=F KetDBF=T FulRan=T
         wScrn=  0.000000 ICntrl=     500 IOpCl=  0 I1Cent=   200000004 NGrid=           0
         NMat0=    1 NMatS0=      1 NMatT0=    0 NMatD0=    1 NMtDS0=    0 NMtDT0=    0
 Petite list used in FoFCou.
 Initial guess orbital symmetries:
       Occupied  (SG) (SG) (SG) (SG) (SG) (PI) (PI)
       Virtual   (PI) (PI) (SG) (SG) (SG)
 The electronic state of the initial guess is 1-SG.
 Keep R1 ints in memory in symmetry-blocked form, NReq=827611.
 Requested convergence on RMS density matrix=1.00D-08 within 128 cycles.
 Requested convergence on MAX density matrix=1.00D-06.
 Requested convergence on             energy=1.00D-06.
 No special actions if energy rises.
 SCF Done:  E(RHF) =  -75.8523545999     A.U. after    8 cycles
            NFock=  8  Conv=0.19D-09     -V/T= 2.0047
 ExpMin= 1.69D-01 ExpMax= 7.16D+01 ExpMxC= 7.16D+01 IAcc=3 IRadAn=         5 AccDes= 0.00D+00
 HarFok:  IExCor=  205 AccDes= 0.00D+00 IRadAn=         5 IDoV=-2 UseB2=F ITyADJ=14
 ICtDFT= 12500011 ScaDFX=  1.000000  1.000000  1.000000  1.000000
 Range of M.O.s used for correlation:     3    12
 NBasis=    12 NAE=     7 NBE=     7 NFC=     2 NFV=     0
 NROrb=     10 NOA=     5 NOB=     5 NVA=     5 NVB=     5
 Semi-Direct transformation.
 ModeAB=           2 MOrb=             5 LenV=      33445258
 LASXX=          386 LTotXX=         386 LenRXX=         386
 LTotAB=         615 MaxLAS=        3900 LenRXY=        3900
 NonZer=        4500 LenScr=      785920 LnRSAI=           0
 LnScr1=           0 LExtra=           0 Total=       790206
 MaxDsk=          -1 SrtSym=           F ITran=            4
 JobTyp=0 Pass  1:  I=   1 to   5.
 (rs|ai) integrals will be sorted in core.
 Spin components of T(2) and E(2):
     alpha-alpha T2 =       0.8494689919D-02 E2=     -0.1574789193D-01
     alpha-beta  T2 =       0.6249587909D-01 E2=     -0.1188350437D+00
     beta-beta   T2 =       0.8494689919D-02 E2=     -0.1574789193D-01
 ANorm=    0.1038982800D+01
 E2 =    -0.1503308276D+00 EUMP2 =    -0.76002685427527D+02
 Keep R2 and R3 ints in memory in symmetry-blocked form, NReq=804883.
 Iterations=  50 Convergence= 0.100D-07
 Iteration Nr.   1
 **********************
 DD1Dir will call FoFMem   1 times, MxPair=        30
 NAB=    15 NAA=     0 NBB=     0.
 MP4(R+Q)=  0.61953115D-03
 E3=       -0.70292499D-02        EUMP3=      -0.76009714677D+02
 E4(DQ)=   -0.67314751D-02        UMP4(DQ)=   -0.76016446152D+02
 E4(SDQ)=  -0.67548835D-02        UMP4(SDQ)=  -0.76016469561D+02
 DE(Corr)= -0.15674029     E(Corr)=     -76.009094894    
 NORM(A)=   0.10434860D+01
 Iteration Nr.   2
 **********************
 DD1Dir will call FoFMem   1 times, MxPair=        30
 NAB=    15 NAA=     0 NBB=     0.
 DE(Corr)= -0.16315159     E(CORR)=     -76.015506191     Delta=-6.41D-03
 NORM(A)=   0.10525202D+01
 Iteration Nr.   3
 **********************
 DD1Dir will call FoFMem   1 times, MxPair=        30
 NAB=    15 NAA=     0 NBB=     0.
 DE(Corr)= -0.16800568     E(CORR)=     -76.020360284     Delta=-4.85D-03
 NORM(A)=   0.10548270D+01
 Iteration Nr.   4
 **********************
 DD1Dir will call FoFMem   1 times, MxPair=        30
 NAB=    15 NAA=     0 NBB=     0.
 DE(Corr)= -0.16904475     E(CORR)=     -76.021399354     Delta=-1.04D-03
 NORM(A)=   0.10551711D+01
 Iteration Nr.   5
 **********************
 DD1Dir will call FoFMem   1 times, MxPair=        30
 NAB=    15 NAA=     0 NBB=     0.
 DE(Corr)= -0.16915848     E(CORR)=     -76.021513079     Delta=-1.14D-04
 NORM(A)=   0.10551891D+01
 Iteration Nr.   6
 **********************
 DD1Dir will call FoFMem   1 times, MxPair=        30
 NAB=    15 NAA=     0 NBB=     0.
 DE(Corr)= -0.16915953     E(CORR)=     -76.021514128     Delta=-1.05D-06
 NORM(A)=   0.10551883D+01
 Iteration Nr.   7
 **********************
 DD1Dir will call FoFMem   1 times, MxPair=        30
 NAB=    15 NAA=     0 NBB=     0.
 DE(Corr)= -0.16915800     E(CORR)=     -76.021512604     Delta= 1.52D-06
 NORM(A)=   0.10551879D+01
 Iteration Nr.   8
 **********************
 DD1Dir will call FoFMem   1 times, MxPair=        30
 NAB=    15 NAA=     0 NBB=     0.
 DE(Corr)= -0.16915804     E(CORR)=     -76.021512636     Delta=-3.15D-08
 NORM(A)=   0.10551883D+01
 Iteration Nr.   9
 **********************
 DD1Dir will call FoFMem   1 times, MxPair=        30
 NAB=    15 NAA=     0 NBB=     0.
 DE(Corr)= -0.16915816     E(CORR)=     -76.021512758     Delta=-1.22D-07
 NORM(A)=   0.10551883D+01
 Iteration Nr.  10
 **********************
 DD1Dir will call FoFMem   1 times, MxPair=        30
 NAB=    15 NAA=     0 NBB=     0.
 DE(Corr)= -0.16915814     E(CORR)=     -76.021512735     Delta= 2.31D-08
 NORM(A)=   0.10551882D+01
 Iteration Nr.  11
 **********************
 DD1Dir will call FoFMem   1 times, MxPair=        30
 NAB=    15 NAA=     0 NBB=     0.
 DE(Corr)= -0.16915811     E(CORR)=     -76.021512715     Delta= 2.03D-08
 NORM(A)=   0.10551882D+01
 Iteration Nr.  12
 **********************
 DD1Dir will call FoFMem   1 times, MxPair=        30
 NAB=    15 NAA=     0 NBB=     0.
 DE(Corr)= -0.16915810     E(CORR)=     -76.021512705     Delta= 1.01D-08
 NORM(A)=   0.10551882D+01
 Iteration Nr.  13
 **********************
 DD1Dir will call FoFMem   1 times, MxPair=        30
 NAB=    15 NAA=     0 NBB=     0.
 DE(Corr)= -0.16915810     E(CORR)=     -76.021512702     Delta= 2.75D-09
 NORM(A)=   0.10551882D+01
 Dominant configurations:
 ***********************
 Spin Case        I    J    A    B          Value
   ABAB           6    6    8    8      -0.151483D+00
   ABAB           7    7    9    9      -0.151483D+00
 Largest amplitude= 1.51D-01

 Z-AMPLITUDE ITERATIONS

 Iteration Nr.   1
 **********************
 DD1Dir will call FoFMem   1 times, MxPair=        30
 NAB=    15 NAA=     0 NBB=     0.
 DE(Z)  -0.16531176D+00          E(Z)=    -0.76017666358D+02
 NORM(A)=   0.10551882D+01
 Iteration Nr.   2
 **********************
 DD1Dir will call FoFMem   1 times, MxPair=        30
 NAB=    15 NAA=     0 NBB=     0.
 DE(Z)  -0.16531176D+00          E(Z)=    -0.76017666359D+02
 NORM(A)=   0.10551882D+01
 Iteration Nr.   3
 **********************
 DD1Dir will call FoFMem   1 times, MxPair=        30
 NAB=    15 NAA=     0 NBB=     0.
 DE(Z)  -0.16531176D+00          E(Z)=    -0.76017666358D+02
 NORM(A)=   0.10551882D+01
 Iteration Nr.   4
 **********************
 DD1Dir will call FoFMem   1 times, MxPair=        30
 NAB=    15 NAA=     0 NBB=     0.
 DE(Z)  -0.16531176D+00          E(Z)=    -0.76017666358D+02
 NORM(A)=   0.10551882D+01
 Iteration Nr.   5
 **********************
 DD1Dir will call FoFMem   1 times, MxPair=        30
 NAB=    15 NAA=     0 NBB=     0.
 DE(Z)  -0.16531176D+00          E(Z)=    -0.76017666358D+02
 NORM(A)=   0.10530708D+01
 Iteration Nr.   6
 **********************
 DD1Dir will call FoFMem   1 times, MxPair=        30
 NAB=    15 NAA=     0 NBB=     0.
 DE(Z)  -0.16535323D+00          E(Z)=    -0.76017707832D+02
 NORM(A)=   0.10531597D+01
 Iteration Nr.   7
 **********************
 DD1Dir will call FoFMem   1 times, MxPair=        30
 NAB=    15 NAA=     0 NBB=     0.
 DE(Z)  -0.16537800D+00          E(Z)=    -0.76017732595D+02
 NORM(A)=   0.10531964D+01
 Iteration Nr.   8
 **********************
 DD1Dir will call FoFMem   1 times, MxPair=        30
 NAB=    15 NAA=     0 NBB=     0.
 DE(Z)  -0.16538774D+00          E(Z)=    -0.76017742344D+02
 NORM(A)=   0.10531969D+01
 Iteration Nr.   9
 **********************
 DD1Dir will call FoFMem   1 times, MxPair=        30
 NAB=    15 NAA=     0 NBB=     0.
 DE(Z)  -0.16538767D+00          E(Z)=    -0.76017742266D+02
 NORM(A)=   0.10531968D+01
 Iteration Nr.  10
 **********************
 DD1Dir will call FoFMem   1 times, MxPair=        30
 NAB=    15 NAA=     0 NBB=     0.
 DE(Z)  -0.16538763D+00          E(Z)=    -0.76017742226D+02
 NORM(A)=   0.10531968D+01
 Iteration Nr.  11
 **********************
 DD1Dir will call FoFMem   1 times, MxPair=        30
 NAB=    15 NAA=     0 NBB=     0.
 DE(Z)  -0.16538762D+00          E(Z)=    -0.76017742216D+02
 NORM(A)=   0.10531968D+01
 Iteration Nr.  12
 **********************
 DD1Dir will call FoFMem   1 times, MxPair=        30
 NAB=    15 NAA=     0 NBB=     0.
 DE(Z)  -0.16538761D+00          E(Z)=    -0.76017742209D+02
 NORM(A)=   0.10531967D+01
 Discarding MO integrals.
          IDoAtm=1111
          Differentiating once with respect to electric field.
                with respect to dipole field.
          Differentiating once with respect to nuclear coordinates.
 Keep R1 ints in memory in symmetry-blocked form, NReq=809523.
          There are     1 degrees of freedom in the 1st order CPHF.  IDoFFX=0 NUNeed=     1.
 LinEq1:  Iter=  0 NonCon=     1 RMS=2.46D-03 Max=1.01D-02 NDo=     1
 AX will form     1 AO Fock derivatives at one time.
 LinEq1:  Iter=  1 NonCon=     1 RMS=7.98D-05 Max=3.93D-04 NDo=     1
 LinEq1:  Iter=  2 NonCon=     1 RMS=3.00D-06 Max=1.22D-05 NDo=     1
 LinEq1:  Iter=  3 NonCon=     1 RMS=1.76D-07 Max=8.09D-07 NDo=     1
 LinEq1:  Iter=  4 NonCon=     1 RMS=1.39D-08 Max=5.15D-08 NDo=     1
 LinEq1:  Iter=  5 NonCon=     1 RMS=4.43D-09 Max=1.50D-08 NDo=     1
 LinEq1:  Iter=  6 NonCon=     1 RMS=1.14D-10 Max=5.22D-10 NDo=     1
 LinEq1:  Iter=  7 NonCon=     0 RMS=2.81D-12 Max=8.63D-12 NDo=     1
 Linear equations converged to 1.000D-10 1.000D-09 after     7 iterations.
 End of Minotr F.D. properties file   721 does not exist.
 End of Minotr F.D. properties file   722 does not exist.
 End of Minotr F.D. properties file   788 does not exist.

 **********************************************************************

            Population analysis using the SCF density.

 **********************************************************************

 Orbital symmetries:
       Occupied  (SG) (SG) (SG) (SG) (SG) (PI) (PI)
       Virtual   (PI) (PI) (SG) (SG) (SG)
 The electronic state is 1-SG.
 Alpha  occ. eigenvalues --  -11.00014 -10.99727  -0.95257  -0.70881  -0.60929
 Alpha  occ. eigenvalues --   -0.34796  -0.34796
 Alpha virt. eigenvalues --    0.39414   0.39414   0.55656   0.73588   1.46958
          Condensed to atoms (all electrons):
               1          2          3          4
     1  C    4.823050   0.895540   0.404576  -0.014409
     2  C    0.895540   4.823050  -0.014409   0.404575
     3  H    0.404576  -0.014409   0.500656   0.000421
     4  H   -0.014409   0.404575   0.000421   0.500657
 Mulliken charges:
               1
     1  C   -0.108756
     2  C   -0.108755
     3  H    0.108756
     4  H    0.108756
 Sum of Mulliken charges =   0.00000
 Mulliken charges with hydrogens summed into heavy atoms:
               1
     1  C    0.000000
     2  C    0.000000
 Electronic spatial extent (au):  <R**2>=             58.3907
 Charge=              0.0000 electrons
 Dipole moment (field-independent basis, Debye):
    X=              0.0000    Y=              0.0000    Z=              0.0000  Tot=              0.0000
 Quadrupole moment (field-independent basis, Debye-Ang):
   XX=            -11.7506   YY=            -11.7506   ZZ=             -7.5961
   XY=              0.0000   XZ=              0.0000   YZ=              0.0000
 Traceless Quadrupole moment (field-independent basis, Debye-Ang):
   XX=             -1.3848   YY=             -1.3848   ZZ=              2.7696
   XY=              0.0000   XZ=              0.0000   YZ=              0.0000
 Octapole moment (field-independent basis, Debye-Ang**2):
  XXX=              0.0000  YYY=              0.0000  ZZZ=              0.0000  XYY=              0.0000
  XXY=              0.0000  XXZ=              0.0000  XZZ=              0.0000  YZZ=              0.0000
  YYZ=              0.0000  XYZ=              0.0000
 Hexadecapole moment (field-independent basis, Debye-Ang**3):
 XXXX=             -9.5574 YYYY=             -9.5574 ZZZZ=            -40.7967 XXXY=              0.0000
 XXXZ=              0.0000 YYYX=              0.0000 YYYZ=              0.0000 ZZZX=              0.0000
 ZZZY=              0.0000 XXYY=             -3.1858 XXZZ=            -10.7277 YYZZ=            -10.7277
 XXYZ=              0.0000 YYXZ=              0.0000 ZZXY=              0.0000
 N-N= 2.476920721361D+01 E-N=-2.268090443788D+02  KE= 7.549391932118D+01
 Symmetry A1   KE= 7.049975133587D+01
 Symmetry A2   KE= 0.000000000000D+00
 Symmetry B1   KE= 2.497083992654D+00
 Symmetry B2   KE= 2.497083992654D+00
 Calling FoFJK, ICntrl=  10002127 FMM=F ISym2X=1 I1Cent= 0 IOpClX= 0 NMat=1 NMatS=1 NMatT=0.
 ***** Axes restored to original set *****
 -------------------------------------------------------------------
 Center     Atomic                   Forces (Hartrees/Bohr)
 Number     Number              X              Y              Z
 -------------------------------------------------------------------
      1        6          -0.010250311   -0.001145609   -0.005268350
      2        6           0.010247190    0.001145261    0.005266747
      3        1           0.023979334    0.002680011    0.012324654
      4        1          -0.023976214   -0.002679663   -0.012323050
 -------------------------------------------------------------------
 Cartesian Forces:  Max     0.023979334 RMS     0.012028359

 GradGradGradGradGradGradGradGradGradGradGradGradGradGradGradGradGradGrad
 Berny optimization.
 FormGI is forming the generalized inverse of G from B-inverse, IUseBI=4.
 Internal  Forces:  Max     0.027094059 RMS     0.015623320
 Search for a local minimum.
 Step number   1 out of a maximum of   20
 All quantities printed in internal units (Hartrees-Bohrs-Radians)
 Mixed Optimization -- RFO/linear search
 Second derivative matrix not updated -- first step.
 The second derivative matrix:
                          R1        R2        R3        A1        A2
           R1           1.02182
           R2           0.00000   0.38738
           R3           0.00000   0.00000   0.38738
           A1           0.00000   0.00000   0.00000   0.00653
           A2           0.00000   0.00000   0.00000   0.00000   0.00653
           A3           0.00000   0.00000   0.00000   0.00000   0.00000
           A4           0.00000   0.00000   0.00000   0.00000   0.00000
                          A3        A4
           A3           0.00653
           A4           0.00000   0.00653
 ITU=  0
     Eigenvalues ---    0.00653   0.00653   0.00653   0.00653   0.38738
     Eigenvalues ---    0.38738   1.02182
 RFO step:  Lambda=-3.98552851D-03 EMin= 6.53043272D-03
 Linear search not attempted -- first point.
 Iteration  1 RMS(Cart)=  0.04124253 RMS(Int)=  0.00000001
 SLEqS3 Cycle:   121 Max:0.278876E-07 RMS:0.125276E-07 Conv:0.264332E-13
 SLEqS3 Cycle:   121 Max:0.278115E-07 RMS:0.124920E-07 Conv:0.264332E-13
 Iteration  2 RMS(Cart)=  0.00000000 RMS(Int)=  0.00000001
 ClnCor:  largest displacement from symmetrization is 1.60D-08 for atom     1.
 Variable       Old X    -DE/DX   Delta X   Delta X   Delta X     New X
                                 (Linear)    (Quad)   (Total)
    R1        2.27777   0.01551   0.00000   0.01512   0.01512   2.29289
    R2        2.00005   0.02709   0.00000   0.06923   0.06923   2.06928
    R3        2.00006   0.02709   0.00000   0.06922   0.06922   2.06928
    A1        3.14159   0.00000   0.00000   0.00000   0.00000   3.14159
    A2        3.14159   0.00000   0.00000   0.00000   0.00000   3.14159
    A3        3.14159   0.00000   0.00000   0.00000   0.00000   3.14159
    A4        3.14159   0.00000   0.00000   0.00000   0.00000   3.14159
         Item               Value     Threshold  Converged?
 Maximum Force            0.027094     0.000450     NO 
 RMS     Force            0.015623     0.000300     NO 
 Maximum Displacement     0.067961     0.001800     NO 
 RMS     Displacement     0.041243     0.001200     NO 
 Predicted change in Energy=-2.012317D-03
 GradGradGradGradGradGradGradGradGradGradGradGradGradGradGradGradGradGrad

                          Input orientation:                          
 ---------------------------------------------------------------------
 Center     Atomic      Atomic             Coordinates (Angstroms)
 Number     Number       Type             X           Y           Z
 ---------------------------------------------------------------------
      1          6           0        0.815660    0.922445    2.259380
      2          6           0       -0.258201    0.802426    1.707448
      3          1           0        1.784793    1.030758    2.757485
      4          1           0       -1.227334    0.694113    1.209343
 ---------------------------------------------------------------------
                    Distance matrix (angstroms):
                    1          2          3          4
     1  C    0.000000
     2  C    1.213348   0.000000
     3  H    1.095016   2.308363   0.000000
     4  H    2.308362   1.095015   3.403378   0.000000
 Stoichiometry    C2H2
 Framework group  C*V[C*(HCCH)]
 Deg. of freedom     3
 Full point group                 C*V     NOp   4
 Largest Abelian subgroup         C2V     NOp   4
 Largest concise Abelian subgroup C1      NOp   1
                         Standard orientation:                         
 ---------------------------------------------------------------------
 Center     Atomic      Atomic             Coordinates (Angstroms)
 Number     Number       Type             X           Y           Z
 ---------------------------------------------------------------------
      1          6           0        0.000000    0.000000    0.606674
      2          6           0        0.000000    0.000000   -0.606674
      3          1           0        0.000000    0.000000    1.701689
      4          1           0        0.000000    0.000000   -1.701689
 ---------------------------------------------------------------------
 Rotational constants (GHZ):      0.0000000     34.4496370     34.4496370
 Standard basis: STO-3G (5D, 7F)
 There are     8 symmetry adapted cartesian basis functions of A1  symmetry.
 There are     0 symmetry adapted cartesian basis functions of A2  symmetry.
 There are     2 symmetry adapted cartesian basis functions of B1  symmetry.
 There are     2 symmetry adapted cartesian basis functions of B2  symmetry.
 There are     8 symmetry adapted basis functions of A1  symmetry.
 There are     0 symmetry adapted basis functions of A2  symmetry.
 There are     2 symmetry adapted basis functions of B1  symmetry.
 There are     2 symmetry adapted basis functions of B2  symmetry.
    12 basis functions,    36 primitive gaussians,    12 cartesian basis functions
     7 alpha electrons        7 beta electrons
       nuclear repulsion energy        24.4062089750 Hartrees.
 NAtoms=    4 NActive=    4 NUniq=    4 SFac= 1.00D+00 NAtFMM=   60 NAOKFM=F Big=F
 Integral buffers will be    131072 words long.
 Raffenetti 1 integral format.
 Two-electron integral symmetry is turned on.
 One-electron integrals computed using PRISM.
 NBasis=    12 RedAO= T EigKep=  2.82D-01  NBF=     8     0     2     2
 NBsUse=    12 1.00D-06 EigRej= -1.00D+00 NBFU=     8     0     2     2
 Initial guess from the checkpoint file:  "/scr/Gau-21521.chk"
 B after Tr=     0.000000    0.000000    0.000000
         Rot=    1.000000    0.000000    0.000000    0.000000 Ang=   0.00 deg.
 Initial guess orbital symmetries:
       Occupied  (SG) (SG) (SG) (SG) (SG) (PI) (PI)
       Virtual   (SG) (SG) (SG) (PI) (PI)
 ExpMin= 1.69D-01 ExpMax= 7.16D+01 ExpMxC= 7.16D+01 IAcc=1 IRadAn=         1 AccDes= 0.00D+00
 Harris functional with IExCor=  205 and IRadAn=       1 diagonalized for initial guess.
 HarFok:  IExCor=  205 AccDes= 0.00D+00 IRadAn=         1 IDoV= 1 UseB2=F ITyADJ=14
 ICtDFT=  3500011 ScaDFX=  1.000000  1.000000  1.000000  1.000000
 FoFCou: FMM=F IPFlag=           0 FMFlag=      100000 FMFlg1=           0
         NFxFlg=           0 DoJE=T BraDBF=F KetDBF=T FulRan=T
         wScrn=  0.000000 ICntrl=     500 IOpCl=  0 I1Cent=   200000004 NGrid=           0
         NMat0=    1 NMatS0=      1 NMatT0=    0 NMatD0=    1 NMtDS0=    0 NMtDT0=    0
 Petite list used in FoFCou.
 Keep R1 ints in memory in symmetry-blocked form, NReq=827611.
 Requested convergence on RMS density matrix=1.00D-08 within 128 cycles.
 Requested convergence on MAX density matrix=1.00D-06.
 Requested convergence on             energy=1.00D-06.
 No special actions if energy rises.
 SCF Done:  E(RHF) =  -75.8492863212     A.U. after    7 cycles
            NFock=  7  Conv=0.13D-08     -V/T= 2.0057
 ExpMin= 1.69D-01 ExpMax= 7.16D+01 ExpMxC= 7.16D+01 IAcc=3 IRadAn=         5 AccDes= 0.00D+00
 HarFok:  IExCor=  205 AccDes= 0.00D+00 IRadAn=         5 IDoV=-2 UseB2=F ITyADJ=14
 ICtDFT= 12500011 ScaDFX=  1.000000  1.000000  1.000000  1.000000
 Range of M.O.s used for correlation:     3    12
 NBasis=    12 NAE=     7 NBE=     7 NFC=     2 NFV=     0
 NROrb=     10 NOA=     5 NOB=     5 NVA=     5 NVB=     5
 Semi-Direct transformation.
 ModeAB=           2 MOrb=             5 LenV=      33445258
 LASXX=          386 LTotXX=         386 LenRXX=         386
 LTotAB=         615 MaxLAS=        3900 LenRXY=        3900
 NonZer=        4500 LenScr=      785920 LnRSAI=           0
 LnScr1=           0 LExtra=           0 Total=       790206
 MaxDsk=          -1 SrtSym=           F ITran=            4
 JobTyp=0 Pass  1:  I=   1 to   5.
 (rs|ai) integrals will be sorted in core.
 Spin components of T(2) and E(2):
     alpha-alpha T2 =       0.8761404453D-02 E2=     -0.1610851719D-01
     alpha-beta  T2 =       0.6484734460D-01 E2=     -0.1219890800D+00
     beta-beta   T2 =       0.8761404453D-02 E2=     -0.1610851719D-01
 ANorm=    0.1040370200D+01
 E2 =    -0.1542061143D+00 EUMP2 =    -0.76003492435564D+02
 Keep R2 and R3 ints in memory in symmetry-blocked form, NReq=804883.
 Iterations=  50 Convergence= 0.100D-07
 Iteration Nr.   1
 **********************
 DD1Dir will call FoFMem   1 times, MxPair=        30
 NAB=    15 NAA=     0 NBB=     0.
 MP4(R+Q)=  0.58749509D-03
 E3=       -0.68086308D-02        EUMP3=      -0.76010301066D+02
 E4(DQ)=   -0.73022151D-02        UMP4(DQ)=   -0.76017603281D+02
 E4(SDQ)=  -0.73266120D-02        UMP4(SDQ)=  -0.76017627678D+02
 DE(Corr)= -0.16042679     E(Corr)=     -76.009713113    
 NORM(A)=   0.10449016D+01
 Iteration Nr.   2
 **********************
 DD1Dir will call FoFMem   1 times, MxPair=        30
 NAB=    15 NAA=     0 NBB=     0.
 DE(Corr)= -0.16727374     E(CORR)=     -76.016560057     Delta=-6.85D-03
 NORM(A)=   0.10546835D+01
 Iteration Nr.   3
 **********************
 DD1Dir will call FoFMem   1 times, MxPair=        30
 NAB=    15 NAA=     0 NBB=     0.
 DE(Corr)= -0.17247725     E(CORR)=     -76.021763573     Delta=-5.20D-03
 NORM(A)=   0.10571460D+01
 Iteration Nr.   4
 **********************
 DD1Dir will call FoFMem   1 times, MxPair=        30
 NAB=    15 NAA=     0 NBB=     0.
 DE(Corr)= -0.17358436     E(CORR)=     -76.022870680     Delta=-1.11D-03
 NORM(A)=   0.10575399D+01
 Iteration Nr.   5
 **********************
 DD1Dir will call FoFMem   1 times, MxPair=        30
 NAB=    15 NAA=     0 NBB=     0.
 DE(Corr)= -0.17371788     E(CORR)=     -76.023004198     Delta=-1.34D-04
 NORM(A)=   0.10575629D+01
 Iteration Nr.   6
 **********************
 DD1Dir will call FoFMem   1 times, MxPair=        30
 NAB=    15 NAA=     0 NBB=     0.
 DE(Corr)= -0.17372026     E(CORR)=     -76.023006586     Delta=-2.39D-06
 NORM(A)=   0.10575612D+01
 Iteration Nr.   7
 **********************
 DD1Dir will call FoFMem   1 times, MxPair=        30
 NAB=    15 NAA=     0 NBB=     0.
 DE(Corr)= -0.17371811     E(CORR)=     -76.023004434     Delta= 2.15D-06
 NORM(A)=   0.10575607D+01
 Iteration Nr.   8
 **********************
 DD1Dir will call FoFMem   1 times, MxPair=        30
 NAB=    15 NAA=     0 NBB=     0.
 DE(Corr)= -0.17371806     E(CORR)=     -76.023004382     Delta= 5.16D-08
 NORM(A)=   0.10575613D+01
 Iteration Nr.   9
 **********************
 DD1Dir will call FoFMem   1 times, MxPair=        30
 NAB=    15 NAA=     0 NBB=     0.
 DE(Corr)= -0.17371827     E(CORR)=     -76.023004586     Delta=-2.04D-07
 NORM(A)=   0.10575613D+01
 Iteration Nr.  10
 **********************
 DD1Dir will call FoFMem   1 times, MxPair=        30
 NAB=    15 NAA=     0 NBB=     0.
 DE(Corr)= -0.17371825     E(CORR)=     -76.023004575     Delta= 1.11D-08
 NORM(A)=   0.10575613D+01
 Iteration Nr.  11
 **********************
 DD1Dir will call FoFMem   1 times, MxPair=        30
 NAB=    15 NAA=     0 NBB=     0.
 DE(Corr)= -0.17371823     E(CORR)=     -76.023004556     Delta= 1.97D-08
 NORM(A)=   0.10575612D+01
 Iteration Nr.  12
 **********************
 DD1Dir will call FoFMem   1 times, MxPair=        30
 NAB=    15 NAA=     0 NBB=     0.
 DE(Corr)= -0.17371822     E(CORR)=     -76.023004545     Delta= 1.03D-08
 NORM(A)=   0.10575612D+01
 Iteration Nr.  13
 **********************
 DD1Dir will call FoFMem   1 times, MxPair=        30
 NAB=    15 NAA=     0 NBB=     0.
 DE(Corr)= -0.17371822     E(CORR)=     -76.023004543     Delta= 2.48D-09
 NORM(A)=   0.10575612D+01
 Dominant configurations:
 ***********************
 Spin Case        I    J    A    B          Value
   ABAB           7    7    8    8      -0.153244D+00
   ABAB           6    6    9    9      -0.153244D+00
 Largest amplitude= 1.53D-01

 Z-AMPLITUDE ITERATIONS

 Iteration Nr.   1
 **********************
 DD1Dir will call FoFMem   1 times, MxPair=        30
 NAB=    15 NAA=     0 NBB=     0.
 DE(Z)  -0.16961002D+00          E(Z)=    -0.76018896340D+02
 NORM(A)=   0.10575612D+01
 Iteration Nr.   2
 **********************
 DD1Dir will call FoFMem   1 times, MxPair=        30
 NAB=    15 NAA=     0 NBB=     0.
 DE(Z)  -0.16961002D+00          E(Z)=    -0.76018896339D+02
 NORM(A)=   0.10575612D+01
 Iteration Nr.   3
 **********************
 DD1Dir will call FoFMem   1 times, MxPair=        30
 NAB=    15 NAA=     0 NBB=     0.
 DE(Z)  -0.16961002D+00          E(Z)=    -0.76018896340D+02
 NORM(A)=   0.10575612D+01
 Iteration Nr.   4
 **********************
 DD1Dir will call FoFMem   1 times, MxPair=        30
 NAB=    15 NAA=     0 NBB=     0.
 DE(Z)  -0.16961002D+00          E(Z)=    -0.76018896340D+02
 NORM(A)=   0.10575612D+01
 Iteration Nr.   5
 **********************
 DD1Dir will call FoFMem   1 times, MxPair=        30
 NAB=    15 NAA=     0 NBB=     0.
 DE(Z)  -0.16961002D+00          E(Z)=    -0.76018896340D+02
 NORM(A)=   0.10549741D+01
 Iteration Nr.   6
 **********************
 DD1Dir will call FoFMem   1 times, MxPair=        30
 NAB=    15 NAA=     0 NBB=     0.
 DE(Z)  -0.16956357D+00          E(Z)=    -0.76018849891D+02
 NORM(A)=   0.10553990D+01
 Iteration Nr.   7
 **********************
 DD1Dir will call FoFMem   1 times, MxPair=        30
 NAB=    15 NAA=     0 NBB=     0.
 DE(Z)  -0.16968713D+00          E(Z)=    -0.76018973454D+02
 NORM(A)=   0.10554796D+01
 Iteration Nr.   8
 **********************
 DD1Dir will call FoFMem   1 times, MxPair=        30
 NAB=    15 NAA=     0 NBB=     0.
 DE(Z)  -0.16970952D+00          E(Z)=    -0.76018995838D+02
 NORM(A)=   0.10554825D+01
 Iteration Nr.   9
 **********************
 DD1Dir will call FoFMem   1 times, MxPair=        30
 NAB=    15 NAA=     0 NBB=     0.
 DE(Z)  -0.16970986D+00          E(Z)=    -0.76018996177D+02
 NORM(A)=   0.10554824D+01
 Iteration Nr.  10
 **********************
 DD1Dir will call FoFMem   1 times, MxPair=        30
 NAB=    15 NAA=     0 NBB=     0.
 DE(Z)  -0.16970981D+00          E(Z)=    -0.76018996128D+02
 NORM(A)=   0.10554825D+01
 Iteration Nr.  11
 **********************
 DD1Dir will call FoFMem   1 times, MxPair=        30
 NAB=    15 NAA=     0 NBB=     0.
 DE(Z)  -0.16970980D+00          E(Z)=    -0.76018996119D+02
 NORM(A)=   0.10554825D+01
 Iteration Nr.  12
 **********************
 DD1Dir will call FoFMem   1 times, MxPair=        30
 NAB=    15 NAA=     0 NBB=     0.
 DE(Z)  -0.16970978D+00          E(Z)=    -0.76018996104D+02
 NORM(A)=   0.10554824D+01
 Iteration Nr.  13
 **********************
 DD1Dir will call FoFMem   1 times, MxPair=        30
 NAB=    15 NAA=     0 NBB=     0.
 DE(Z)  -0.16970978D+00          E(Z)=    -0.76018996098D+02
 NORM(A)=   0.10554824D+01
 Discarding MO integrals.
          IDoAtm=1111
          Differentiating once with respect to electric field.
                with respect to dipole field.
          Differentiating once with respect to nuclear coordinates.
 Keep R1 ints in memory in symmetry-blocked form, NReq=809523.
          There are     1 degrees of freedom in the 1st order CPHF.  IDoFFX=0 NUNeed=     1.
 LinEq1:  Iter=  0 NonCon=     1 RMS=2.88D-03 Max=1.23D-02 NDo=     1
 AX will form     1 AO Fock derivatives at one time.
 LinEq1:  Iter=  1 NonCon=     1 RMS=1.21D-04 Max=5.65D-04 NDo=     1
 LinEq1:  Iter=  2 NonCon=     1 RMS=4.42D-06 Max=1.88D-05 NDo=     1
 LinEq1:  Iter=  3 NonCon=     1 RMS=2.01D-07 Max=9.67D-07 NDo=     1
 LinEq1:  Iter=  4 NonCon=     1 RMS=6.43D-09 Max=2.21D-08 NDo=     1
 LinEq1:  Iter=  5 NonCon=     1 RMS=2.36D-09 Max=8.54D-09 NDo=     1
 LinEq1:  Iter=  6 NonCon=     1 RMS=1.29D-10 Max=5.52D-10 NDo=     1
 LinEq1:  Iter=  7 NonCon=     0 RMS=1.63D-12 Max=7.30D-12 NDo=     1
 Linear equations converged to 1.000D-10 1.000D-09 after     7 iterations.
 End of Minotr F.D. properties file   721 does not exist.
 End of Minotr F.D. properties file   722 does not exist.
 End of Minotr F.D. properties file   788 does not exist.
 Calling FoFJK, ICntrl=  10002127 FMM=F ISym2X=1 I1Cent= 0 IOpClX= 0 NMat=1 NMatS=1 NMatT=0.
 ***** Axes restored to original set *****
 -------------------------------------------------------------------
 Center     Atomic                   Forces (Hartrees/Bohr)
 Number     Number              X              Y              Z
 -------------------------------------------------------------------
      1        6           0.003880375    0.000433684    0.001994396
      2        6          -0.003879824   -0.000433622   -0.001994112
      3        1          -0.005295790   -0.000591875   -0.002721876
      4        1           0.005295239    0.000591814    0.002721593
 -------------------------------------------------------------------
 Cartesian Forces:  Max     0.005295790 RMS     0.003028225

 GradGradGradGradGradGradGradGradGradGradGradGradGradGradGradGradGradGrad
 Berny optimization.
 Using GEDIIS/GDIIS optimizer.
 FormGI is forming the generalized inverse of G from B-inverse, IUseBI=4.
 Internal  Forces:  Max     0.005983671 RMS     0.003254861
 Search for a local minimum.
 Step number   2 out of a maximum of   20
 All quantities printed in internal units (Hartrees-Bohrs-Radians)
 Mixed Optimization -- RFO/linear search
 Update second derivatives using D2CorX and points    1    2
 DE= -1.49D-03 DEPred=-2.01D-03 R= 7.41D-01
 TightC=F SS=  1.41D+00  RLast= 9.91D-02 DXNew= 5.0454D-01 2.9718D-01
 Trust test= 7.41D-01 RLast= 9.91D-02 DXMaxT set to 3.00D-01
 The second derivative matrix:
                          R1        R2        R3        A1        A2
           R1           1.02184
           R2           0.01198   0.43129
           R3           0.01198   0.04390   0.43127
           A1           0.00000   0.00000   0.00000   0.00653
           A2           0.00000   0.00000   0.00000   0.00000   0.00653
           A3           0.00000   0.00000   0.00000   0.00000   0.00000
           A4           0.00000   0.00000   0.00000   0.00000   0.00000
                          A3        A4
           A3           0.00653
           A4           0.00000   0.00653
 ITU=  1  0
 Use linear search instead of GDIIS.
     Eigenvalues ---    0.00653   0.00653   0.00653   0.00653   0.38738
     Eigenvalues ---    0.47465   1.02237
 RFO step:  Lambda=-2.50753946D-06 EMin= 6.53043272D-03
 Quartic linear search produced a step of -0.19035.
 Iteration  1 RMS(Cart)=  0.00762408 RMS(Int)=  0.00000001
 Iteration  2 RMS(Cart)=  0.00000001 RMS(Int)=  0.00000000
 ClnCor:  largest displacement from symmetrization is 1.90D-08 for atom     2.
 Variable       Old X    -DE/DX   Delta X   Delta X   Delta X     New X
                                 (Linear)    (Quad)   (Total)
    R1        2.29289  -0.00160  -0.00288   0.00153  -0.00135   2.29154
    R2        2.06928  -0.00598  -0.01318  -0.00040  -0.01357   2.05571
    R3        2.06928  -0.00598  -0.01318  -0.00040  -0.01357   2.05571
    A1        3.14159   0.00000   0.00000   0.00000   0.00000   3.14159
    A2        3.14159   0.00000   0.00000   0.00000   0.00000   3.14159
    A3        3.14159   0.00000   0.00000   0.00000   0.00000   3.14159
    A4        3.14159   0.00000   0.00000   0.00000   0.00000   3.14159
         Item               Value     Threshold  Converged?
 Maximum Force            0.005984     0.000450     NO 
 RMS     Force            0.003255     0.000300     NO 
 Maximum Displacement     0.012610     0.001800     NO 
 RMS     Displacement     0.007624     0.001200     NO 
 Predicted change in Energy=-7.567299D-05
 GradGradGradGradGradGradGradGradGradGradGradGradGradGradGradGradGradGrad

                          Input orientation:                          
 ---------------------------------------------------------------------
 Center     Atomic      Atomic             Coordinates (Angstroms)
 Number     Number       Type             X           Y           Z
 ---------------------------------------------------------------------
      1          6           0        0.815344    0.922410    2.259218
      2          6           0       -0.257885    0.802462    1.707610
      3          1           0        1.778120    1.030013    2.754056
      4          1           0       -1.220661    0.694859    1.212772
 ---------------------------------------------------------------------
                    Distance matrix (angstroms):
                    1          2          3          4
     1  C    0.000000
     2  C    1.212633   0.000000
     3  H    1.087833   2.300466   0.000000
     4  H    2.300466   1.087833   3.388299   0.000000
 Stoichiometry    C2H2
 Framework group  C*V[C*(HCCH)]
 Deg. of freedom     3
 Full point group                 C*V     NOp   4
 Largest Abelian subgroup         C2V     NOp   4
 Largest concise Abelian subgroup C1      NOp   1
                         Standard orientation:                         
 ---------------------------------------------------------------------
 Center     Atomic      Atomic             Coordinates (Angstroms)
 Number     Number       Type             X           Y           Z
 ---------------------------------------------------------------------
      1          6           0        0.000000    0.000000    0.606317
      2          6           0        0.000000    0.000000   -0.606317
      3          1           0        0.000000    0.000000    1.694150
      4          1           0        0.000000    0.000000   -1.694149
 ---------------------------------------------------------------------
 Rotational constants (GHZ):      0.0000000     34.5958556     34.5958556
 Standard basis: STO-3G (5D, 7F)
 There are     8 symmetry adapted cartesian basis functions of A1  symmetry.
 There are     0 symmetry adapted cartesian basis functions of A2  symmetry.
 There are     2 symmetry adapted cartesian basis functions of B1  symmetry.
 There are     2 symmetry adapted cartesian basis functions of B2  symmetry.
 There are     8 symmetry adapted basis functions of A1  symmetry.
 There are     0 symmetry adapted basis functions of A2  symmetry.
 There are     2 symmetry adapted basis functions of B1  symmetry.
 There are     2 symmetry adapted basis functions of B2  symmetry.
    12 basis functions,    36 primitive gaussians,    12 cartesian basis functions
     7 alpha electrons        7 beta electrons
       nuclear repulsion energy        24.4638797089 Hartrees.
 NAtoms=    4 NActive=    4 NUniq=    4 SFac= 1.00D+00 NAtFMM=   60 NAOKFM=F Big=F
 Integral buffers will be    131072 words long.
 Raffenetti 1 integral format.
 Two-electron integral symmetry is turned on.
 One-electron integrals computed using PRISM.
 NBasis=    12 RedAO= T EigKep=  2.81D-01  NBF=     8     0     2     2
 NBsUse=    12 1.00D-06 EigRej= -1.00D+00 NBFU=     8     0     2     2
 Initial guess from the checkpoint file:  "/scr/Gau-21521.chk"
 B after Tr=     0.000000    0.000000    0.000000
         Rot=    1.000000    0.000000    0.000000    0.000000 Ang=   0.00 deg.
 Initial guess orbital symmetries:
       Occupied  (SG) (SG) (SG) (SG) (SG) (PI) (PI)
       Virtual   (SG) (SG) (SG) (PI) (PI)
 Keep R1 ints in memory in symmetry-blocked form, NReq=827611.
 Requested convergence on RMS density matrix=1.00D-08 within 128 cycles.
 Requested convergence on MAX density matrix=1.00D-06.
 Requested convergence on             energy=1.00D-06.
 No special actions if energy rises.
 SCF Done:  E(RHF) =  -75.8500832359     A.U. after    6 cycles
            NFock=  6  Conv=0.48D-08     -V/T= 2.0055
 ExpMin= 1.69D-01 ExpMax= 7.16D+01 ExpMxC= 7.16D+01 IAcc=3 IRadAn=         5 AccDes= 0.00D+00
 HarFok:  IExCor=  205 AccDes= 0.00D+00 IRadAn=         5 IDoV=-2 UseB2=F ITyADJ=14
 ICtDFT= 12500011 ScaDFX=  1.000000  1.000000  1.000000  1.000000
 Range of M.O.s used for correlation:     3    12
 NBasis=    12 NAE=     7 NBE=     7 NFC=     2 NFV=     0
 NROrb=     10 NOA=     5 NOB=     5 NVA=     5 NVB=     5
 Semi-Direct transformation.
 ModeAB=           2 MOrb=             5 LenV=      33445258
 LASXX=          386 LTotXX=         386 LenRXX=         386
 LTotAB=         615 MaxLAS=        3900 LenRXY=        3900
 NonZer=        4500 LenScr=      785920 LnRSAI=           0
 LnScr1=           0 LExtra=           0 Total=       790206
 MaxDsk=          -1 SrtSym=           F ITran=            4
 JobTyp=0 Pass  1:  I=   1 to   5.
 (rs|ai) integrals will be sorted in core.
 Spin components of T(2) and E(2):
     alpha-alpha T2 =       0.8732458589D-02 E2=     -0.1606604357D-01
     alpha-beta  T2 =       0.6451852959D-01 E2=     -0.1215205886D+00
     beta-beta   T2 =       0.8732458589D-02 E2=     -0.1606604357D-01
 ANorm=    0.1040184333D+01
 E2 =    -0.1536526757D+00 EUMP2 =    -0.76003735911614D+02
 Keep R2 and R3 ints in memory in symmetry-blocked form, NReq=804883.
 Iterations=  50 Convergence= 0.100D-07
 Iteration Nr.   1
 **********************
 DD1Dir will call FoFMem   1 times, MxPair=        30
 NAB=    15 NAA=     0 NBB=     0.
 MP4(R+Q)=  0.59568261D-03
 E3=       -0.68011934D-02        EUMP3=      -0.76010537105D+02
 E4(DQ)=   -0.72032360D-02        UMP4(DQ)=   -0.76017740341D+02
 E4(SDQ)=  -0.72274380D-02        UMP4(SDQ)=  -0.76017764543D+02
 DE(Corr)= -0.15985777     E(Corr)=     -76.009941011    
 NORM(A)=   0.10446816D+01
 Iteration Nr.   2
 **********************
 DD1Dir will call FoFMem   1 times, MxPair=        30
 NAB=    15 NAA=     0 NBB=     0.
 DE(Corr)= -0.16662849     E(CORR)=     -76.016711723     Delta=-6.77D-03
 NORM(A)=   0.10543433D+01
 Iteration Nr.   3
 **********************
 DD1Dir will call FoFMem   1 times, MxPair=        30
 NAB=    15 NAA=     0 NBB=     0.
 DE(Corr)= -0.17177466     E(CORR)=     -76.021857897     Delta=-5.15D-03
 NORM(A)=   0.10567887D+01
 Iteration Nr.   4
 **********************
 DD1Dir will call FoFMem   1 times, MxPair=        30
 NAB=    15 NAA=     0 NBB=     0.
 DE(Corr)= -0.17287338     E(CORR)=     -76.022956612     Delta=-1.10D-03
 NORM(A)=   0.10571753D+01
 Iteration Nr.   5
 **********************
 DD1Dir will call FoFMem   1 times, MxPair=        30
 NAB=    15 NAA=     0 NBB=     0.
 DE(Corr)= -0.17300374     E(CORR)=     -76.023086979     Delta=-1.30D-04
 NORM(A)=   0.10571974D+01
 Iteration Nr.   6
 **********************
 DD1Dir will call FoFMem   1 times, MxPair=        30
 NAB=    15 NAA=     0 NBB=     0.
 DE(Corr)= -0.17300587     E(CORR)=     -76.023089103     Delta=-2.12D-06
 NORM(A)=   0.10571959D+01
 Iteration Nr.   7
 **********************
 DD1Dir will call FoFMem   1 times, MxPair=        30
 NAB=    15 NAA=     0 NBB=     0.
 DE(Corr)= -0.17300383     E(CORR)=     -76.023087061     Delta= 2.04D-06
 NORM(A)=   0.10571955D+01
 Iteration Nr.   8
 **********************
 DD1Dir will call FoFMem   1 times, MxPair=        30
 NAB=    15 NAA=     0 NBB=     0.
 DE(Corr)= -0.17300379     E(CORR)=     -76.023087028     Delta= 3.36D-08
 NORM(A)=   0.10571960D+01
 Iteration Nr.   9
 **********************
 DD1Dir will call FoFMem   1 times, MxPair=        30
 NAB=    15 NAA=     0 NBB=     0.
 DE(Corr)= -0.17300398     E(CORR)=     -76.023087216     Delta=-1.89D-07
 NORM(A)=   0.10571960D+01
 Iteration Nr.  10
 **********************
 DD1Dir will call FoFMem   1 times, MxPair=        30
 NAB=    15 NAA=     0 NBB=     0.
 DE(Corr)= -0.17300397     E(CORR)=     -76.023087203     Delta= 1.38D-08
 NORM(A)=   0.10571960D+01
 Iteration Nr.  11
 **********************
 DD1Dir will call FoFMem   1 times, MxPair=        30
 NAB=    15 NAA=     0 NBB=     0.
 DE(Corr)= -0.17300395     E(CORR)=     -76.023087183     Delta= 2.00D-08
 NORM(A)=   0.10571959D+01
 Iteration Nr.  12
 **********************
 DD1Dir will call FoFMem   1 times, MxPair=        30
 NAB=    15 NAA=     0 NBB=     0.
 DE(Corr)= -0.17300394     E(CORR)=     -76.023087172     Delta= 1.04D-08
 NORM(A)=   0.10571959D+01
 Iteration Nr.  13
 **********************
 DD1Dir will call FoFMem   1 times, MxPair=        30
 NAB=    15 NAA=     0 NBB=     0.
 DE(Corr)= -0.17300393     E(CORR)=     -76.023087170     Delta= 2.60D-09
 NORM(A)=   0.10571959D+01
 Dominant configurations:
 ***********************
 Spin Case        I    J    A    B          Value
   ABAB           6    6    8    8      -0.153116D+00
   ABAB           7    7    9    9      -0.153116D+00
 Largest amplitude= 1.53D-01

 Z-AMPLITUDE ITERATIONS

 Iteration Nr.   1
 **********************
 DD1Dir will call FoFMem   1 times, MxPair=        30
 NAB=    15 NAA=     0 NBB=     0.
 DE(Z)  -0.16892927D+00          E(Z)=    -0.76019012506D+02
 NORM(A)=   0.10571959D+01
 Iteration Nr.   2
 **********************
 DD1Dir will call FoFMem   1 times, MxPair=        30
 NAB=    15 NAA=     0 NBB=     0.
 DE(Z)  -0.16892927D+00          E(Z)=    -0.76019012505D+02
 NORM(A)=   0.10571959D+01
 Iteration Nr.   3
 **********************
 DD1Dir will call FoFMem   1 times, MxPair=        30
 NAB=    15 NAA=     0 NBB=     0.
 DE(Z)  -0.16892927D+00          E(Z)=    -0.76019012506D+02
 NORM(A)=   0.10571959D+01
 Iteration Nr.   4
 **********************
 DD1Dir will call FoFMem   1 times, MxPair=        30
 NAB=    15 NAA=     0 NBB=     0.
 DE(Z)  -0.16892927D+00          E(Z)=    -0.76019012505D+02
 NORM(A)=   0.10571959D+01
 Iteration Nr.   5
 **********************
 DD1Dir will call FoFMem   1 times, MxPair=        30
 NAB=    15 NAA=     0 NBB=     0.
 DE(Z)  -0.16892927D+00          E(Z)=    -0.76019012505D+02
 NORM(A)=   0.10543527D+01
 Iteration Nr.   6
 **********************
 DD1Dir will call FoFMem   1 times, MxPair=        30
 NAB=    15 NAA=     0 NBB=     0.
 DE(Z)  -0.16874488D+00          E(Z)=    -0.76018828119D+02
 NORM(A)=   0.10547592D+01
 Iteration Nr.   7
 **********************
 DD1Dir will call FoFMem   1 times, MxPair=        30
 NAB=    15 NAA=     0 NBB=     0.
 DE(Z)  -0.16892088D+00          E(Z)=    -0.76019004114D+02
 NORM(A)=   0.10550796D+01
 Iteration Nr.   8
 **********************
 DD1Dir will call FoFMem   1 times, MxPair=        30
 NAB=    15 NAA=     0 NBB=     0.
 DE(Z)  -0.16901544D+00          E(Z)=    -0.76019098674D+02
 NORM(A)=   0.10551270D+01
 Iteration Nr.   9
 **********************
 DD1Dir will call FoFMem   1 times, MxPair=        30
 NAB=    15 NAA=     0 NBB=     0.
 DE(Z)  -0.16902795D+00          E(Z)=    -0.76019111186D+02
 NORM(A)=   0.10551299D+01
 Iteration Nr.  10
 **********************
 DD1Dir will call FoFMem   1 times, MxPair=        30
 NAB=    15 NAA=     0 NBB=     0.
 DE(Z)  -0.16902828D+00          E(Z)=    -0.76019111521D+02
 NORM(A)=   0.10551299D+01
 Iteration Nr.  11
 **********************
 DD1Dir will call FoFMem   1 times, MxPair=        30
 NAB=    15 NAA=     0 NBB=     0.
 DE(Z)  -0.16902827D+00          E(Z)=    -0.76019111501D+02
 NORM(A)=   0.10551300D+01
 Iteration Nr.  12
 **********************
 DD1Dir will call FoFMem   1 times, MxPair=        30
 NAB=    15 NAA=     0 NBB=     0.
 DE(Z)  -0.16902825D+00          E(Z)=    -0.76019111488D+02
 NORM(A)=   0.10551300D+01
 Iteration Nr.  13
 **********************
 DD1Dir will call FoFMem   1 times, MxPair=        30
 NAB=    15 NAA=     0 NBB=     0.
 DE(Z)  -0.16902824D+00          E(Z)=    -0.76019111475D+02
 NORM(A)=   0.10551299D+01
 Iteration Nr.  14
 **********************
 DD1Dir will call FoFMem   1 times, MxPair=        30
 NAB=    15 NAA=     0 NBB=     0.
 DE(Z)  -0.16902823D+00          E(Z)=    -0.76019111469D+02
 NORM(A)=   0.10551299D+01
 Discarding MO integrals.
          IDoAtm=1111
          Differentiating once with respect to electric field.
                with respect to dipole field.
          Differentiating once with respect to nuclear coordinates.
 Keep R1 ints in memory in symmetry-blocked form, NReq=809523.
          There are     1 degrees of freedom in the 1st order CPHF.  IDoFFX=0 NUNeed=     1.
 LinEq1:  Iter=  0 NonCon=     1 RMS=2.80D-03 Max=1.19D-02 NDo=     1
 AX will form     1 AO Fock derivatives at one time.
 LinEq1:  Iter=  1 NonCon=     1 RMS=1.13D-04 Max=5.30D-04 NDo=     1
 LinEq1:  Iter=  2 NonCon=     1 RMS=4.15D-06 Max=1.76D-05 NDo=     1
 LinEq1:  Iter=  3 NonCon=     1 RMS=1.96D-07 Max=9.37D-07 NDo=     1
 LinEq1:  Iter=  4 NonCon=     1 RMS=5.69D-09 Max=2.11D-08 NDo=     1
 LinEq1:  Iter=  5 NonCon=     1 RMS=3.84D-10 Max=1.42D-09 NDo=     1
 LinEq1:  Iter=  6 NonCon=     1 RMS=1.17D-10 Max=4.81D-10 NDo=     1
 LinEq1:  Iter=  7 NonCon=     0 RMS=1.57D-12 Max=7.60D-12 NDo=     1
 Linear equations converged to 1.000D-10 1.000D-09 after     7 iterations.
 End of Minotr F.D. properties file   721 does not exist.
 End of Minotr F.D. properties file   722 does not exist.
 End of Minotr F.D. properties file   788 does not exist.
 Calling FoFJK, ICntrl=  10002127 FMM=F ISym2X=1 I1Cent= 0 IOpClX= 0 NMat=1 NMatS=1 NMatT=0.
 ***** Axes restored to original set *****
 -------------------------------------------------------------------
 Center     Atomic                   Forces (Hartrees/Bohr)
 Number     Number              X              Y              Z
 -------------------------------------------------------------------
      1        6          -0.000278054   -0.000031076   -0.000142911
      2        6           0.000278125    0.000031084    0.000142948
      3        1           0.000024277    0.000002713    0.000012478
      4        1          -0.000024349   -0.000002721   -0.000012515
 -------------------------------------------------------------------
 Cartesian Forces:  Max     0.000278125 RMS     0.000128766

 GradGradGradGradGradGradGradGradGradGradGradGradGradGradGradGradGradGrad
 Berny optimization.
 Using GEDIIS/GDIIS optimizer.
 FormGI is forming the generalized inverse of G from B-inverse, IUseBI=4.
 Internal  Forces:  Max     0.000286740 RMS     0.000109368
 Search for a local minimum.
 Step number   3 out of a maximum of   20
 All quantities printed in internal units (Hartrees-Bohrs-Radians)
 Mixed Optimization -- En-DIIS/RFO-DIIS
 Update second derivatives using D2CorX and points    1    2    3
 DE= -8.26D-05 DEPred=-7.57D-05 R= 1.09D+00
 TightC=F SS=  1.41D+00  RLast= 1.92D-02 DXNew= 5.0454D-01 5.7725D-02
 Trust test= 1.09D+00 RLast= 1.92D-02 DXMaxT set to 3.00D-01
 The second derivative matrix:
                          R1        R2        R3        A1        A2
           R1           1.01695
           R2          -0.00222   0.41524
           R3          -0.00222   0.02786   0.41523
           A1           0.00000   0.00000   0.00000   0.00653
           A2           0.00000   0.00000   0.00000   0.00000   0.00653
           A3           0.00000   0.00000   0.00000   0.00000   0.00000
           A4           0.00000   0.00000   0.00000   0.00000   0.00000
                          A3        A4
           A3           0.00653
           A4           0.00000   0.00653
 ITU=  1  1  0
 Use linear search instead of GDIIS.
     Eigenvalues ---    0.00653   0.00653   0.00653   0.00653   0.38738
     Eigenvalues ---    0.44307   1.01697
 RFO step:  Lambda=-8.33061786D-08 EMin= 6.53043272D-03
 Quartic linear search produced a step of -0.00213.
 Iteration  1 RMS(Cart)=  0.00008681 RMS(Int)=  0.00000002
 SLEqS3 Cycle:   121 Max:0.315154E-07 RMS:0.134830E-07 Conv:0.317516E-13
 SLEqS3 Cycle:   121 Max:0.313834E-07 RMS:0.134461E-07 Conv:0.317516E-13
 Iteration  2 RMS(Cart)=  0.00000000 RMS(Int)=  0.00000002
 ClnCor:  largest displacement from symmetrization is 4.49D-08 for atom     2.
 Variable       Old X    -DE/DX   Delta X   Delta X   Delta X     New X
                                 (Linear)    (Quad)   (Total)
    R1        2.29154  -0.00029   0.00000  -0.00028  -0.00028   2.29126
    R2        2.05571   0.00003   0.00003   0.00003   0.00006   2.05577
    R3        2.05571   0.00003   0.00003   0.00003   0.00006   2.05577
    A1        3.14159   0.00000   0.00000   0.00000   0.00000   3.14159
    A2        3.14159   0.00000   0.00000   0.00000   0.00000   3.14159
    A3        3.14159   0.00000   0.00000   0.00000   0.00000   3.14159
    A4        3.14159   0.00000   0.00000   0.00000   0.00000   3.14159
         Item               Value     Threshold  Converged?
 Maximum Force            0.000287     0.000450     YES
 RMS     Force            0.000109     0.000300     YES
 Maximum Displacement     0.000125     0.001800     YES
 RMS     Displacement     0.000087     0.001200     YES
 Predicted change in Energy=-4.205117D-08
 Optimization completed.
    -- Stationary point found.
                           ----------------------------
                           !   Optimized Parameters   !
                           ! (Angstroms and Degrees)  !
 --------------------------                            --------------------------
 ! Name  Definition              Value          Derivative Info.                !
 --------------------------------------------------------------------------------
 ! R1    R(1,2)                  1.2126         -DE/DX =   -0.0003              !
 ! R2    R(1,3)                  1.0878         -DE/DX =    0.0                 !
 ! R3    R(2,4)                  1.0878         -DE/DX =    0.0                 !
 ! A1    L(2,1,3,-2,-1)        180.0            -DE/DX =    0.0                 !
 ! A2    L(1,2,4,-2,-1)        180.0            -DE/DX =    0.0                 !
 ! A3    L(2,1,3,-3,-2)        180.0            -DE/DX =    0.0                 !
 ! A4    L(1,2,4,-3,-2)        180.0            -DE/DX =    0.0                 !
 --------------------------------------------------------------------------------
 GradGradGradGradGradGradGradGradGradGradGradGradGradGradGradGradGradGrad

                          Input orientation:                          
 ---------------------------------------------------------------------
 Center     Atomic      Atomic             Coordinates (Angstroms)
 Number     Number       Type             X           Y           Z
 ---------------------------------------------------------------------
      1          6           0        0.815344    0.922410    2.259218
      2          6           0       -0.257885    0.802462    1.707610
      3          1           0        1.778120    1.030013    2.754056
      4          1           0       -1.220661    0.694859    1.212772
 ---------------------------------------------------------------------
                    Distance matrix (angstroms):
                    1          2          3          4
     1  C    0.000000
     2  C    1.212633   0.000000
     3  H    1.087833   2.300466   0.000000
     4  H    2.300466   1.087833   3.388299   0.000000
 Stoichiometry    C2H2
 Framework group  C*V[C*(HCCH)]
 Deg. of freedom     3
 Full point group                 C*V     NOp   4
 Largest Abelian subgroup         C2V     NOp   4
 Largest concise Abelian subgroup C1      NOp   1
                         Standard orientation:                         
 ---------------------------------------------------------------------
 Center     Atomic      Atomic             Coordinates (Angstroms)
 Number     Number       Type             X           Y           Z
 ---------------------------------------------------------------------
      1          6           0        0.000000    0.000000    0.606317
      2          6           0        0.000000    0.000000   -0.606317
      3          1           0        0.000000    0.000000    1.694150
      4          1           0        0.000000    0.000000   -1.694149
 ---------------------------------------------------------------------
 Rotational constants (GHZ):      0.0000000     34.5958556     34.5958556

 **********************************************************************

            Population analysis using the SCF density.

 **********************************************************************

 Orbital symmetries:
       Occupied  (SG) (SG) (SG) (SG) (SG) (PI) (PI)
       Virtual   (PI) (PI) (SG) (SG) (SG)
 The electronic state is 1-SG.
 Alpha  occ. eigenvalues --  -10.99750 -10.99479  -0.94630  -0.69602  -0.59722
 Alpha  occ. eigenvalues --   -0.34277  -0.34277
 Alpha virt. eigenvalues --    0.39429   0.39429   0.53040   0.70312   1.44171
          Condensed to atoms (all electrons):
               1          2          3          4
     1  C    4.834923   0.889223   0.398267  -0.014355
     2  C    0.889223   4.834923  -0.014355   0.398267
     3  H    0.398267  -0.014355   0.507645   0.000386
     4  H   -0.014355   0.398267   0.000386   0.507644
 Mulliken charges:
               1
     1  C   -0.108058
     2  C   -0.108058
     3  H    0.108058
     4  H    0.108058
 Sum of Mulliken charges =   0.00000
 Mulliken charges with hydrogens summed into heavy atoms:
               1
     1  C    0.000000
     2  C    0.000000
 Electronic spatial extent (au):  <R**2>=             59.2571
 Charge=              0.0000 electrons
 Dipole moment (field-independent basis, Debye):
    X=              0.0000    Y=              0.0000    Z=              0.0000  Tot=              0.0000
 Quadrupole moment (field-independent basis, Debye-Ang):
   XX=            -11.7715   YY=            -11.7715   ZZ=             -7.3989
   XY=              0.0000   XZ=              0.0000   YZ=              0.0000
 Traceless Quadrupole moment (field-independent basis, Debye-Ang):
   XX=             -1.4575   YY=             -1.4575   ZZ=              2.9151
   XY=              0.0000   XZ=              0.0000   YZ=              0.0000
 Octapole moment (field-independent basis, Debye-Ang**2):
  XXX=              0.0000  YYY=              0.0000  ZZZ=              0.0000  XYY=              0.0000
  XXY=              0.0000  XXZ=              0.0000  XZZ=              0.0000  YZZ=              0.0000
  YYZ=              0.0000  XYZ=              0.0000
 Hexadecapole moment (field-independent basis, Debye-Ang**3):
 XXXX=             -9.5826 YYYY=             -9.5826 ZZZZ=            -40.5849 XXXY=              0.0000
 XXXZ=              0.0000 YYYX=              0.0000 YYYZ=              0.0000 ZZZX=              0.0000
 ZZZY=              0.0000 XXYY=             -3.1942 XXZZ=            -10.9555 YYZZ=            -10.9555
 XXYZ=              0.0000 YYXZ=              0.0000 ZZXY=              0.0000
 N-N= 2.446387970887D+01 E-N=-2.262272368302D+02  KE= 7.543404772036D+01
 Symmetry A1   KE= 7.043634664094D+01
 Symmetry A2   KE= 0.000000000000D+00
 Symmetry B1   KE= 2.498850539710D+00
 Symmetry B2   KE= 2.498850539710D+00
 1\1\GINC-N0298\FOpt\RCCSD-FC\STO-3G\C2H2\TAIYUPAN\23-Feb-2017\0\\#n CC
 SD/STO-3G Opt\\CH_CCSD/STO-3G\\0,1\C,0.8153440643,0.9224095133,2.25921
 77202\C,-0.2578852315,0.8024617848,1.7076102514\H,1.7781200637,1.03001
 26086,2.754055528\H,-1.2206611469,0.6948586989,1.2127724867\\Version=E
 S64L-G09RevE.01\State=1-SG\HF=-75.8500832\MP2=-76.0037359\MP3=-76.0105
 371\MP4D=-76.018336\MP4DQ=-76.0177403\MP4SDQ=-76.0177645\CCSD=-76.0230
 872\RMSD=4.808e-09\RMSF=1.288e-04\Dipole=0.,0.,0.\PG=C*V [C*(H1C1C1H1)
 ]\\@


 THOSE WHO ARE UNABLE TO LEARN FROM PAST MEETINGS
 ARE CONDEMNED TO REPEAT THEM.
 Job cpu time:       0 days  0 hours  0 minutes 59.8 seconds.
 File lengths (MBytes):  RWF=     12 Int=      0 D2E=      0 Chk=      1 Scr=      1
 Normal termination of Gaussian 09 at Thu Feb 23 18:19:03 2017.
