 Entering Gaussian System, Link 0=g09
 Input=FOR.com
 Output=FOR.log
 Initial command:
 /gscratch/pfaendtner/codes/G09/g09/l1.exe /gscratch/pfaendtner/wesley/gaussian/Gau-23555.inp -scrdir=/gscratch/pfaendtner/wesley/gaussian/
 Entering Link 1 = /gscratch/pfaendtner/codes/G09/g09/l1.exe PID=     23556.
  
 Copyright (c) 1988,1990,1992,1993,1995,1998,2003,2009, Gaussian, Inc.
                  All Rights Reserved.
  
 This is part of the Gaussian(R) 09 program.  It is based on
 the Gaussian(R) 03 system (copyright 2003, Gaussian, Inc.),
 the Gaussian(R) 98 system (copyright 1998, Gaussian, Inc.),
 the Gaussian(R) 94 system (copyright 1995, Gaussian, Inc.),
 the Gaussian 92(TM) system (copyright 1992, Gaussian, Inc.),
 the Gaussian 90(TM) system (copyright 1990, Gaussian, Inc.),
 the Gaussian 88(TM) system (copyright 1988, Gaussian, Inc.),
 the Gaussian 86(TM) system (copyright 1986, Carnegie Mellon
 University), and the Gaussian 82(TM) system (copyright 1983,
 Carnegie Mellon University). Gaussian is a federally registered
 trademark of Gaussian, Inc.
  
 This software contains proprietary and confidential information,
 including trade secrets, belonging to Gaussian, Inc.
  
 This software is provided under written license and may be
 used, copied, transmitted, or stored only in accord with that
 written license.
  
 The following legend is applicable only to US Government
 contracts under FAR:
  
                    RESTRICTED RIGHTS LEGEND
  
 Use, reproduction and disclosure by the US Government is
 subject to restrictions as set forth in subparagraphs (a)
 and (c) of the Commercial Computer Software - Restricted
 Rights clause in FAR 52.227-19.
  
 Gaussian, Inc.
 340 Quinnipiac St., Bldg. 40, Wallingford CT 06492
  
  
 ---------------------------------------------------------------
 Warning -- This program may not be used in any manner that
 competes with the business of Gaussian, Inc. or will provide
 assistance to any competitor of Gaussian, Inc.  The licensee
 of this program is prohibited from giving any competitor of
 Gaussian, Inc. access to this program.  By using this program,
 the user acknowledges that Gaussian, Inc. is engaged in the
 business of creating and licensing software in the field of
 computational chemistry and represents and warrants to the
 licensee that it is not a competitor of Gaussian, Inc. and that
 it will not use this program in any manner prohibited above.
 ---------------------------------------------------------------
  

 Cite this work as:
 Gaussian 09, Revision A.02,
 M. J. Frisch, G. W. Trucks, H. B. Schlegel, G. E. Scuseria, 
 M. A. Robb, J. R. Cheeseman, G. Scalmani, V. Barone, B. Mennucci, 
 G. A. Petersson, H. Nakatsuji, M. Caricato, X. Li, H. P. Hratchian, 
 A. F. Izmaylov, J. Bloino, G. Zheng, J. L. Sonnenberg, M. Hada, 
 M. Ehara, K. Toyota, R. Fukuda, J. Hasegawa, M. Ishida, T. Nakajima, 
 Y. Honda, O. Kitao, H. Nakai, T. Vreven, J. A. Montgomery, Jr., 
 J. E. Peralta, F. Ogliaro, M. Bearpark, J. J. Heyd, E. Brothers, 
 K. N. Kudin, V. N. Staroverov, R. Kobayashi, J. Normand, 
 K. Raghavachari, A. Rendell, J. C. Burant, S. S. Iyengar, J. Tomasi, 
 M. Cossi, N. Rega, J. M. Millam, M. Klene, J. E. Knox, J. B. Cross, 
 V. Bakken, C. Adamo, J. Jaramillo, R. Gomperts, R. E. Stratmann, 
 O. Yazyev, A. J. Austin, R. Cammi, C. Pomelli, J. W. Ochterski, 
 R. L. Martin, K. Morokuma, V. G. Zakrzewski, G. A. Voth, 
 P. Salvador, J. J. Dannenberg, S. Dapprich, A. D. Daniels, 
 O. Farkas, J. B. Foresman, J. V. Ortiz, J. Cioslowski, 
 and D. J. Fox, Gaussian, Inc., Wallingford CT, 2009.
 
 ******************************************
 Gaussian 09:  EM64L-G09RevA.02 11-Jun-2009
                 8-Mar-2017 
 ******************************************
 %chk=FOR.chk
 %nprocshared=4
 Will use up to    4 processors via shared memory.
 --------------------------------------
 # opt M062X/6-311+G* geom=connectivity
 --------------------------------------
 1/14=-1,18=20,19=15,26=3,38=1,57=2/1,3;
 2/9=110,12=2,17=6,18=5,40=1/2;
 3/5=4,6=6,7=11,11=2,16=1,25=1,30=1,71=1,74=-55/1,2,3;
 4//1;
 5/5=2,38=5/2;
 6/7=2,8=2,9=2,10=2,28=1/1;
 7//1,2,3,16;
 1/14=-1,18=20,19=15/3(2);
 2/9=110/2;
 99//99;
 2/9=110/2;
 3/5=4,6=6,7=11,11=2,16=1,25=1,30=1,71=1,74=-55/1,2,3;
 4/5=5,16=3/1;
 5/5=2,38=5/2;
 7//1,2,3,16;
 1/14=-1,18=20,19=15/3(-5);
 2/9=110/2;
 6/7=2,8=2,9=2,10=2,19=2,28=1/1;
 99/9=1/99;
 -------------------
 Title Card Required
 -------------------
 Symbolic Z-matrix:
 Charge =  0 Multiplicity = 2
 O(PDBName=O1,ResName=FOR,ResNum=1)  0.534     0.176     0.001 
 C(PDBName=C1,ResName=FOR,ResNum=1) -0.692     0.055    -0.004 
 H(PDBName=H1,ResName=FOR,ResNum=1) -1.257     1.029     0.03 
 O(PDBName=O2,ResName=FOR,ResNum=1) -1.405    -0.948    -0.038 
 

 GradGradGradGradGradGradGradGradGradGradGradGradGradGradGradGradGradGrad
 Berny optimization.
 Initialization pass.
                           ----------------------------
                           !    Initial Parameters    !
                           ! (Angstroms and Degrees)  !
 --------------------------                            --------------------------
 ! Name  Definition              Value          Derivative Info.                !
 --------------------------------------------------------------------------------
 ! R1    R(1,2)                  1.232          estimate D2E/DX2                !
 ! R2    R(2,3)                  1.1265         estimate D2E/DX2                !
 ! R3    R(2,4)                  1.2311         estimate D2E/DX2                !
 ! A1    A(1,2,3)              114.4609         estimate D2E/DX2                !
 ! A2    A(1,2,4)              131.0334         estimate D2E/DX2                !
 ! A3    A(3,2,4)              114.5056         estimate D2E/DX2                !
 ! D1    D(1,2,4,3)            179.8897         estimate D2E/DX2                !
 --------------------------------------------------------------------------------
 Trust Radius=3.00D-01 FncErr=1.00D-07 GrdErr=1.00D-06
 Number of steps in this run=  20 maximum allowed number of steps= 100.
 GradGradGradGradGradGradGradGradGradGradGradGradGradGradGradGradGradGrad

                          Input orientation:                          
 ---------------------------------------------------------------------
 Center     Atomic      Atomic             Coordinates (Angstroms)
 Number     Number       Type             X           Y           Z
 ---------------------------------------------------------------------
      1          8           0        0.534000    0.176000    0.001000
      2          6           0       -0.692000    0.055000   -0.004000
      3          1           0       -1.257000    1.029000    0.030000
      4          8           0       -1.405000   -0.948000   -0.038000
 ---------------------------------------------------------------------
                    Distance matrix (angstroms):
                    1          2          3          4
     1  O    0.000000
     2  C    1.231967   0.000000
     3  H    1.983968   1.126524   0.000000
     4  O    2.241566   1.231070   1.983698   0.000000
 Stoichiometry    CHO2(2)
 Framework group  C1[X(CHO2)]
 Deg. of freedom     6
 Full point group                 C1      NOp   1
 Largest Abelian subgroup         C1      NOp   1
 Largest concise Abelian subgroup C1      NOp   1
                         Standard orientation:                         
 ---------------------------------------------------------------------
 Center     Atomic      Atomic             Coordinates (Angstroms)
 Number     Number       Type             X           Y           Z
 ---------------------------------------------------------------------
      1          8           0        1.120937   -0.204228    0.000090
      2          6           0       -0.000376    0.306064   -0.000349
      3          1           0       -0.000207    1.432588    0.000653
      4          8           0       -1.120629   -0.204394    0.000090
 ---------------------------------------------------------------------
 Rotational constants (GHZ):    112.7308322     12.5765688     11.3143132
 Standard basis: 6-311+G(d) (5D, 7F)
 There are    69 symmetry adapted basis functions of A   symmetry.
 Integral buffers will be    131072 words long.
 Raffenetti 2 integral format.
 Two-electron integral symmetry is turned on.
    69 basis functions,   113 primitive gaussians,    72 cartesian basis functions
    12 alpha electrons       11 beta electrons
       nuclear repulsion energy        63.4458783465 Hartrees.
 NAtoms=    4 NActive=    4 NUniq=    4 SFac= 7.50D-01 NAtFMM=   80 NAOKFM=F Big=F
 One-electron integrals computed using PRISM.
 NBasis=    69 RedAO= T  NBF=    69
 NBsUse=    69 1.00D-06 NBFU=    69
 Harris functional with IExCor= 1009 diagonalized for initial guess.
 ExpMin= 4.38D-02 ExpMax= 8.59D+03 ExpMxC= 1.30D+03 IAcc=2 IRadAn=         0 AccDes= 0.00D+00
 HarFok:  IExCor= 1009 AccDes= 0.00D+00 IRadAn=         0 IDoV= 1
 ScaDFX=  1.000000  1.000000  1.000000  1.000000
 FoFCou: FMM=F IPFlag=           0 FMFlag=      100000 FMFlg1=           0
         NFxFlg=           0 DoJE=T BraDBF=F KetDBF=T FulRan=T
         Omega=  0.000000  0.000000  1.000000  0.000000  0.000000 ICntrl=     500 IOpCl=  0
         NMat0=    1 NMatS0=    1 NMatT0=    0 NMatD0=    1 NMtDS0=    0 NMtDT0=    0
         I1Cent=           4 NGrid=           0.
 Petite list used in FoFCou.
 Initial guess orbital symmetries:
 Alpha Orbitals:
       Occupied  (A) (A) (A) (A) (A) (A) (A) (A) (A) (A) (A) (A)
       Virtual   (A) (A) (A) (A) (A) (A) (A) (A) (A) (A) (A) (A)
                 (A) (A) (A) (A) (A) (A) (A) (A) (A) (A) (A) (A)
                 (A) (A) (A) (A) (A) (A) (A) (A) (A) (A) (A) (A)
                 (A) (A) (A) (A) (A) (A) (A) (A) (A) (A) (A) (A)
                 (A) (A) (A) (A) (A) (A) (A) (A) (A)
 Beta  Orbitals:
       Occupied  (A) (A) (A) (A) (A) (A) (A) (A) (A) (A) (A)
       Virtual   (A) (A) (A) (A) (A) (A) (A) (A) (A) (A) (A) (A)
                 (A) (A) (A) (A) (A) (A) (A) (A) (A) (A) (A) (A)
                 (A) (A) (A) (A) (A) (A) (A) (A) (A) (A) (A) (A)
                 (A) (A) (A) (A) (A) (A) (A) (A) (A) (A) (A) (A)
                 (A) (A) (A) (A) (A) (A) (A) (A) (A) (A)
 The electronic state of the initial guess is 2-A.
 Initial guess <Sx>= 0.0000 <Sy>= 0.0000 <Sz>= 0.5000 <S**2>= 0.7500 S= 0.5000
 Requested convergence on RMS density matrix=1.00D-08 within 128 cycles.
 Requested convergence on MAX density matrix=1.00D-06.
 Requested convergence on             energy=1.00D-06.
 No special actions if energy rises.
 Keep R1 and R2 ints in memory in canonical form, NReq=7871122.
 SCF Done:  E(UM062X) =  -189.044577996     A.U. after   21 cycles
             Convg  =    0.4926D-08             -V/T =  2.0028
 <Sx>= 0.0000 <Sy>= 0.0000 <Sz>= 0.5000 <S**2>= 0.7603 S= 0.5051
 <L.S>= 0.000000000000E+00
 Annihilation of the first spin contaminant:
 S**2 before annihilation     0.7603,   after     0.7501

 **********************************************************************

            Population analysis using the SCF density.

 **********************************************************************

 Orbital symmetries:
 Alpha Orbitals:
       Occupied  (A) (A) (A) (A) (A) (A) (A) (A) (A) (A) (A) (A)
       Virtual   (A) (A) (A) (A) (A) (A) (A) (A) (A) (A) (A) (A)
                 (A) (A) (A) (A) (A) (A) (A) (A) (A) (A) (A) (A)
                 (A) (A) (A) (A) (A) (A) (A) (A) (A) (A) (A) (A)
                 (A) (A) (A) (A) (A) (A) (A) (A) (A) (A) (A) (A)
                 (A) (A) (A) (A) (A) (A) (A) (A) (A)
 Beta  Orbitals:
       Occupied  (A) (A) (A) (A) (A) (A) (A) (A) (A) (A) (A)
       Virtual   (A) (A) (A) (A) (A) (A) (A) (A) (A) (A) (A) (A)
                 (A) (A) (A) (A) (A) (A) (A) (A) (A) (A) (A) (A)
                 (A) (A) (A) (A) (A) (A) (A) (A) (A) (A) (A) (A)
                 (A) (A) (A) (A) (A) (A) (A) (A) (A) (A) (A) (A)
                 (A) (A) (A) (A) (A) (A) (A) (A) (A) (A)
 The electronic state is 2-A.
 Alpha  occ. eigenvalues --  -19.69924 -19.69757 -10.71958  -1.27913  -1.19268
 Alpha  occ. eigenvalues --   -0.74871  -0.63656  -0.60477  -0.57572  -0.45000
 Alpha  occ. eigenvalues --   -0.44053  -0.43138
 Alpha virt. eigenvalues --    0.01339   0.01586   0.03827   0.04938   0.05557
 Alpha virt. eigenvalues --    0.16224   0.18482   0.19731   0.20993   0.22954
 Alpha virt. eigenvalues --    0.25453   0.27889   0.27995   0.31437   0.41375
 Alpha virt. eigenvalues --    0.44276   0.49944   0.53414   0.65785   0.71986
 Alpha virt. eigenvalues --    0.83448   1.05255   1.06984   1.09428   1.10790
 Alpha virt. eigenvalues --    1.12876   1.14778   1.27982   1.37621   1.43897
 Alpha virt. eigenvalues --    1.47959   1.55323   1.82795   1.88867   2.30371
 Alpha virt. eigenvalues --    2.59994   2.81574   2.81931   2.86276   2.89958
 Alpha virt. eigenvalues --    3.13283   3.14257   3.27667   3.28524   3.40331
 Alpha virt. eigenvalues --    3.55312   3.73298   3.95226   5.04462   5.05706
 Alpha virt. eigenvalues --    5.06302   5.10954   5.54119   5.84976  23.87335
 Alpha virt. eigenvalues --   49.92355  49.97651
  Beta  occ. eigenvalues --  -19.69071 -19.68920 -10.72088  -1.25279  -1.16124
  Beta  occ. eigenvalues --   -0.70117  -0.61579  -0.56645  -0.56468  -0.41217
  Beta  occ. eigenvalues --   -0.36697
  Beta virt. eigenvalues --   -0.20143   0.01320   0.02005   0.04344   0.04881
  Beta virt. eigenvalues --    0.05526   0.16185   0.18678   0.19310   0.21336
  Beta virt. eigenvalues --    0.23301   0.25263   0.27355   0.28012   0.31346
  Beta virt. eigenvalues --    0.41626   0.45630   0.50883   0.53230   0.64705
  Beta virt. eigenvalues --    0.72184   0.83449   1.05922   1.07602   1.11106
  Beta virt. eigenvalues --    1.12972   1.13459   1.16268   1.27679   1.37798
  Beta virt. eigenvalues --    1.44265   1.49130   1.55995   1.83312   1.89806
  Beta virt. eigenvalues --    2.32804   2.59290   2.83942   2.84332   2.89132
  Beta virt. eigenvalues --    2.92437   3.13235   3.15845   3.27832   3.28864
  Beta virt. eigenvalues --    3.41441   3.56432   3.75265   3.96205   5.05802
  Beta virt. eigenvalues --    5.07063   5.09881   5.13784   5.55664   5.85799
  Beta virt. eigenvalues --   23.87172  49.91563  49.96852
          Condensed to atoms (all electrons):
              1          2          3          4
     1  O    8.071291   0.313037  -0.049936  -0.174949
     2  C    0.313037   5.043413   0.340053   0.310889
     3  H   -0.049936   0.340053   0.439739  -0.050742
     4  O   -0.174949   0.310889  -0.050742   8.068851
 Mulliken atomic charges:
              1
     1  O   -0.159443
     2  C   -0.007393
     3  H    0.320886
     4  O   -0.154050
 Sum of Mulliken atomic charges =   0.00000
 Mulliken charges with hydrogens summed into heavy atoms:
              1
     1  O   -0.159443
     2  C    0.313493
     4  O   -0.154050
 Sum of Mulliken charges with hydrogens summed into heavy atoms =   0.00000
          Atomic-Atomic Spin Densities.
              1          2          3          4
     1  O    0.365416   0.008542  -0.047244   0.092064
     2  C    0.008542  -0.190548   0.082117   0.006904
     3  H   -0.047244   0.082117   0.258126  -0.047281
     4  O    0.092064   0.006904  -0.047281   0.376801
 Mulliken atomic spin densities:
              1
     1  O    0.418778
     2  C   -0.092985
     3  H    0.245719
     4  O    0.428488
 Sum of Mulliken atomic spin densities =   1.00000
 Electronic spatial extent (au):  <R**2>=            121.6405
 Charge=              0.0000 electrons
 Dipole moment (field-independent basis, Debye):
    X=             -0.0246    Y=              2.1973    Z=             -0.0004  Tot=              2.1975
 Quadrupole moment (field-independent basis, Debye-Ang):
   XX=            -21.3973   YY=            -13.6615   ZZ=            -16.2495
   XY=              0.0026   XZ=              0.0000   YZ=              0.0011
 Traceless Quadrupole moment (field-independent basis, Debye-Ang):
   XX=             -4.2945   YY=              3.4413   ZZ=              0.8532
   XY=              0.0026   XZ=              0.0000   YZ=              0.0011
 Octapole moment (field-independent basis, Debye-Ang**2):
  XXX=             -0.0510  YYY=              2.9355  ZZZ=              0.0005  XYY=             -0.0146
  XXY=             -0.1384  XXZ=              0.0009  XZZ=             -0.0079  YZZ=             -0.1975
  YYZ=              0.0027  XYZ=              0.0000
 Hexadecapole moment (field-independent basis, Debye-Ang**3):
 XXXX=           -106.1618 YYYY=            -20.4697 ZZZZ=            -13.7556 XXXY=             -0.0104
 XXXZ=              0.0000 YYYX=              0.0182 YYYZ=              0.0041 ZZZX=              0.0000
 ZZZY=              0.0003 XXYY=            -20.7892 XXZZ=            -19.3530 YYZZ=             -6.7762
 XXYZ=             -0.0003 YYXZ=              0.0000 ZZXY=              0.0010
 N-N= 6.344587834654D+01 E-N=-8.516737903910D+02  KE= 2.814253665657D+02
                          Isotropic Fermi Contact Couplings
        Atom                 a.u.       MegaHertz       Gauss      10(-4) cm-1
     1  O(17)              0.05265     -31.91729     -11.38888     -10.64646
     2  C(13)             -0.07984     -89.75005     -32.02505     -29.93739
     3  H(1)               0.11615     519.15567     185.24765     173.17169
     4  O(17)              0.05436     -32.95206     -11.75811     -10.99162
 --------------------------------------------------------
       Center         ----  Spin Dipole Couplings  ----
                      3XX-RR        3YY-RR        3ZZ-RR
 --------------------------------------------------------
     1   Atom       -0.923291      1.764743     -0.841452
     2   Atom        0.037957      0.063697     -0.101654
     3   Atom       -0.016891      0.030532     -0.013641
     4   Atom       -0.940263      1.796362     -0.856098
 --------------------------------------------------------
                        XY            XZ            YZ
 --------------------------------------------------------
     1   Atom        0.048223     -0.000038      0.000316
     2   Atom        0.000393     -0.000001     -0.000007
     3   Atom        0.000104      0.000000      0.000054
     4   Atom       -0.076825      0.000039      0.000284
 --------------------------------------------------------


 ---------------------------------------------------------------------------------
              Anisotropic Spin Dipole Couplings in Principal Axis System
 ---------------------------------------------------------------------------------

       Atom             a.u.   MegaHertz   Gauss  10(-4) cm-1        Axes

              Baa    -0.9242    66.871    23.861    22.306  0.9998 -0.0179  0.0005
     1 O(17)  Bbb    -0.8415    60.887    21.726    20.310 -0.0005 -0.0001  1.0000
              Bcc     1.7656  -127.758   -45.587   -42.616  0.0179  0.9998  0.0001
 
              Baa    -0.1017   -13.641    -4.867    -4.550  0.0000  0.0000  1.0000
     2 C(13)  Bbb     0.0380     5.093     1.817     1.699  0.9999 -0.0152  0.0000
              Bcc     0.0637     8.548     3.050     2.851  0.0152  0.9999  0.0000
 
              Baa    -0.0169    -9.012    -3.216    -3.006  1.0000 -0.0022  0.0001
     3 H(1)   Bbb    -0.0136    -7.278    -2.597    -2.428 -0.0001 -0.0012  1.0000
              Bcc     0.0305    16.290     5.813     5.434  0.0022  1.0000  0.0012
 
              Baa    -0.9424    68.193    24.333    22.747  0.9996  0.0280 -0.0005
     4 O(17)  Bbb    -0.8561    61.947    22.104    20.663  0.0005 -0.0001  1.0000
              Bcc     1.7985  -130.139   -46.437   -43.410 -0.0280  0.9996  0.0001
 

 ---------------------------------------------------------------------------------

 Calling FoFJK, ICntrl=      2127 FMM=F ISym2X=0 I1Cent= 0 IOpClX= 1 NMat=1 NMatS=1 NMatT=0.
 ***** Axes restored to original set *****
 -------------------------------------------------------------------
 Center     Atomic                   Forces (Hartrees/Bohr)
 Number     Number              X              Y              Z
 -------------------------------------------------------------------
      1        8          -0.010137136    0.030026316    0.000943116
      2        6           0.033891403   -0.054612287   -0.001652766
      3        1          -0.001510541    0.002230177    0.000031509
      4        8          -0.022243727    0.022355794    0.000678141
 -------------------------------------------------------------------
 Cartesian Forces:  Max     0.054612287 RMS     0.022622578

 GradGradGradGradGradGradGradGradGradGradGradGradGradGradGradGradGradGrad
 Berny optimization.
 Internal  Forces:  Max     0.048079889 RMS     0.022533620
 Search for a local minimum.
 Step number   1 out of a maximum of   20
 All quantities printed in internal units (Hartrees-Bohrs-Radians)
 Mixed Optimization -- RFO/linear search
 Second derivative matrix not updated -- first step.
 The second derivative matrix:
                          R1        R2        R3        A1        A2
           R1           0.90272
           R2           0.00000   0.30911
           R3           0.00000   0.00000   0.90642
           A1           0.00000   0.00000   0.00000   0.16000
           A2           0.00000   0.00000   0.00000   0.00000   0.25000
           A3           0.00000   0.00000   0.00000   0.00000   0.00000
           D1           0.00000   0.00000   0.00000   0.00000   0.00000
                          A3        D1
           A3           0.16000
           D1           0.00000   0.03926
     Eigenvalues ---    0.03926   0.16000   0.22000   0.30911   0.90272
     Eigenvalues ---    0.906421000.00000
 RFO step:  Lambda=-1.48728431D-02 EMin= 3.92640672D-02
 Linear search not attempted -- first point.
 Iteration  1 RMS(Cart)=  0.09367168 RMS(Int)=  0.00651636
 Iteration  2 RMS(Cart)=  0.00601423 RMS(Int)=  0.00000858
 Iteration  3 RMS(Cart)=  0.00000890 RMS(Int)=  0.00000042
 Iteration  4 RMS(Cart)=  0.00000000 RMS(Int)=  0.00000042
 Variable       Old X    -DE/DX   Delta X   Delta X   Delta X     New X
                                 (Linear)    (Quad)   (Total)
    R1        2.32808  -0.00714   0.00000  -0.00778  -0.00778   2.32030
    R2        2.12882   0.00269   0.00000   0.00829   0.00829   2.13712
    R3        2.32639  -0.00535   0.00000  -0.00581  -0.00581   2.32058
    A1        1.99772  -0.02384   0.00000  -0.10120  -0.10121   1.89651
    A2        2.28696   0.04808   0.00000   0.20471   0.20471   2.49167
    A3        1.99850  -0.02424   0.00000  -0.10350  -0.10350   1.89500
    D1        3.13967   0.00012   0.00000   0.00211   0.00211  -3.14141
         Item               Value     Threshold  Converged?
 Maximum Force            0.048080     0.000450     NO 
 RMS     Force            0.022534     0.000300     NO 
 Maximum Displacement     0.135156     0.001800     NO 
 RMS     Displacement     0.093606     0.001200     NO 
 Predicted change in Energy=-7.905125D-03
 GradGradGradGradGradGradGradGradGradGradGradGradGradGradGradGradGradGrad

                          Input orientation:                          
 ---------------------------------------------------------------------
 Center     Atomic      Atomic             Coordinates (Angstroms)
 Number     Number       Type             X           Y           Z
 ---------------------------------------------------------------------
      1          8           0        0.541966    0.247521    0.003280
      2          6           0       -0.661293    0.003157   -0.005280
      3          1           0       -1.229293    0.980510    0.028202
      4          8           0       -1.471379   -0.919188   -0.037202
 ---------------------------------------------------------------------
                    Distance matrix (angstroms):
                    1          2          3          4
     1  O    0.000000
     2  C    1.227852   0.000000
     3  H    1.917095   1.130913   0.000000
     4  O    2.327318   1.227997   1.916177   0.000000
 Stoichiometry    CHO2(2)
 Framework group  C1[X(CHO2)]
 Deg. of freedom     6
 Full point group                 C1      NOp   1
 Largest Abelian subgroup         C1      NOp   1
 Largest concise Abelian subgroup C1      NOp   1
                         Standard orientation:                         
 ---------------------------------------------------------------------
 Center     Atomic      Atomic             Coordinates (Angstroms)
 Number     Number       Type             X           Y           Z
 ---------------------------------------------------------------------
      1          8           0       -1.163680   -0.168431    0.000009
      2          6           0       -0.000079    0.223555   -0.000031
      3          1           0        0.000809    1.354467    0.000048
      4          8           0        1.163638   -0.168543    0.000009
 ---------------------------------------------------------------------
 Rotational constants (GHZ):    152.3717330     11.6668579     10.8370802
 Standard basis: 6-311+G(d) (5D, 7F)
 There are    69 symmetry adapted basis functions of A   symmetry.
 Integral buffers will be    131072 words long.
 Raffenetti 2 integral format.
 Two-electron integral symmetry is turned on.
    69 basis functions,   113 primitive gaussians,    72 cartesian basis functions
    12 alpha electrons       11 beta electrons
       nuclear repulsion energy        63.1486081476 Hartrees.
 NAtoms=    4 NActive=    4 NUniq=    4 SFac= 7.50D-01 NAtFMM=   80 NAOKFM=F Big=F
 One-electron integrals computed using PRISM.
 NBasis=    69 RedAO= T  NBF=    69
 NBsUse=    69 1.00D-06 NBFU=    69
 Initial guess read from the read-write file.
 B after Tr=     0.000000    0.000000    0.000000
         Rot=    1.000000    0.000000    0.000000    0.000000 Ang=   0.00 deg.
 Initial guess orbital symmetries:
 Alpha Orbitals:
       Occupied  (A) (A) (A) (A) (A) (A) (A) (A) (A) (A) (A) (A)
       Virtual   (A) (A) (A) (A) (A) (A) (A) (A) (A) (A) (A) (A)
                 (A) (A) (A) (A) (A) (A) (A) (A) (A) (A) (A) (A)
                 (A) (A) (A) (A) (A) (A) (A) (A) (A) (A) (A) (A)
                 (A) (A) (A) (A) (A) (A) (A) (A) (A) (A) (A) (A)
                 (A) (A) (A) (A) (A) (A) (A) (A) (A)
 Beta  Orbitals:
       Occupied  (A) (A) (A) (A) (A) (A) (A) (A) (A) (A) (A)
       Virtual   (A) (A) (A) (A) (A) (A) (A) (A) (A) (A) (A) (A)
                 (A) (A) (A) (A) (A) (A) (A) (A) (A) (A) (A) (A)
                 (A) (A) (A) (A) (A) (A) (A) (A) (A) (A) (A) (A)
                 (A) (A) (A) (A) (A) (A) (A) (A) (A) (A) (A) (A)
                 (A) (A) (A) (A) (A) (A) (A) (A) (A) (A)
 Initial guess <Sx>= 0.0000 <Sy>= 0.0000 <Sz>= 0.5000 <S**2>= 0.8467 S= 0.5472
 Harris functional with IExCor= 1009 diagonalized for initial guess.
 ExpMin= 4.38D-02 ExpMax= 8.59D+03 ExpMxC= 1.30D+03 IAcc=2 IRadAn=         0 AccDes= 0.00D+00
 HarFok:  IExCor= 1009 AccDes= 0.00D+00 IRadAn=         0 IDoV= 1
 ScaDFX=  1.000000  1.000000  1.000000  1.000000
 FoFCou: FMM=F IPFlag=           0 FMFlag=      100000 FMFlg1=           0
         NFxFlg=           0 DoJE=T BraDBF=F KetDBF=T FulRan=T
         Omega=  0.000000  0.000000  1.000000  0.000000  0.000000 ICntrl=     500 IOpCl=  0
         NMat0=    1 NMatS0=    1 NMatT0=    0 NMatD0=    1 NMtDS0=    0 NMtDT0=    0
         I1Cent=           4 NGrid=           0.
 Petite list used in FoFCou.
 Requested convergence on RMS density matrix=1.00D-08 within 128 cycles.
 Requested convergence on MAX density matrix=1.00D-06.
 Requested convergence on             energy=1.00D-06.
 No special actions if energy rises.
 Keep R1 and R2 ints in memory in canonical form, NReq=7871122.
 SCF Done:  E(UM062X) =  -189.052838696     A.U. after   16 cycles
             Convg  =    0.8010D-08             -V/T =  2.0030
 <Sx>= 0.0000 <Sy>= 0.0000 <Sz>= 0.5000 <S**2>= 0.7593 S= 0.5046
 <L.S>= 0.000000000000E+00
 Annihilation of the first spin contaminant:
 S**2 before annihilation     0.7593,   after     0.7501
 Calling FoFJK, ICntrl=      2127 FMM=F ISym2X=0 I1Cent= 0 IOpClX= 1 NMat=1 NMatS=1 NMatT=0.
 ***** Axes restored to original set *****
 -------------------------------------------------------------------
 Center     Atomic                   Forces (Hartrees/Bohr)
 Number     Number              X              Y              Z
 -------------------------------------------------------------------
      1        8          -0.018827118   -0.000066483    0.000001657
      2        6           0.015671715   -0.026317268   -0.000920660
      3        1          -0.006028890    0.010282266    0.000356356
      4        8           0.009184293    0.016101485    0.000562646
 -------------------------------------------------------------------
 Cartesian Forces:  Max     0.026317268 RMS     0.012177982

 GradGradGradGradGradGradGradGradGradGradGradGradGradGradGradGradGradGrad
 Berny optimization.
 Using GEDIIS/GDIIS optimizer.
 Internal  Forces:  Max     0.018463254 RMS     0.011099634
 Search for a local minimum.
 Step number   2 out of a maximum of   20
 All quantities printed in internal units (Hartrees-Bohrs-Radians)
 Mixed Optimization -- RFO/linear search
 Update second derivatives using D2CorX and points    1    2
 DE= -8.26D-03 DEPred=-7.91D-03 R= 1.04D+00
 SS=  1.41D+00  RLast= 2.51D-01 DXNew= 5.0454D-01 7.5315D-01
 Trust test= 1.04D+00 RLast= 2.51D-01 DXMaxT set to 5.05D-01
 The second derivative matrix:
                          R1        R2        R3        A1        A2
           R1           0.90924
           R2          -0.00691   0.31533
           R3           0.00872  -0.00831   0.91730
           A1          -0.02681   0.01819  -0.02722   0.17581
           A2           0.06336  -0.04006   0.06185  -0.01028   0.20255
           A3          -0.02727   0.01848  -0.02767   0.01588  -0.00993
           D1           0.00016  -0.00011   0.00016  -0.00012   0.00013
                          A3        D1
           A3           0.17595
           D1          -0.00012   0.03926
 Use linear search instead of GDIIS.
     Eigenvalues ---    0.03926   0.16000   0.18189   0.33052   0.90408
     Eigenvalues ---    0.937801000.00000
 RFO step:  Lambda=-1.55441143D-03 EMin= 3.92645696D-02
 Quartic linear search produced a step of  0.18877.
 Iteration  1 RMS(Cart)=  0.02082159 RMS(Int)=  0.00052560
 Iteration  2 RMS(Cart)=  0.00055500 RMS(Int)=  0.00000012
 Iteration  3 RMS(Cart)=  0.00000009 RMS(Int)=  0.00000007
 Variable       Old X    -DE/DX   Delta X   Delta X   Delta X     New X
                                 (Linear)    (Quad)   (Total)
    R1        2.32030  -0.01846  -0.00147  -0.02362  -0.02508   2.29522
    R2        2.13712   0.01192   0.00157   0.04496   0.04652   2.18364
    R3        2.32058  -0.01817  -0.00110  -0.02329  -0.02439   2.29619
    A1        1.89651  -0.00282  -0.01910  -0.00738  -0.02648   1.87003
    A2        2.49167   0.00573   0.03864   0.01532   0.05396   2.54563
    A3        1.89500  -0.00291  -0.01954  -0.00794  -0.02747   1.86753
    D1       -3.14141  -0.00001   0.00040  -0.00036   0.00004  -3.14138
         Item               Value     Threshold  Converged?
 Maximum Force            0.018463     0.000450     NO 
 RMS     Force            0.011100     0.000300     NO 
 Maximum Displacement     0.038746     0.001800     NO 
 RMS     Displacement     0.020780     0.001200     NO 
 Predicted change in Energy=-9.245798D-04
 GradGradGradGradGradGradGradGradGradGradGradGradGradGradGradGradGradGrad

                          Input orientation:                          
 ---------------------------------------------------------------------
 Center     Atomic      Atomic             Coordinates (Angstroms)
 Number     Number       Type             X           Y           Z
 ---------------------------------------------------------------------
      1          8           0        0.534187    0.256220    0.003577
      2          6           0       -0.649143   -0.017347   -0.005979
      3          1           0       -1.229869    0.981072    0.028219
      4          8           0       -1.475176   -0.907945   -0.036817
 ---------------------------------------------------------------------
                    Distance matrix (angstroms):
                    1          2          3          4
     1  O    0.000000
     2  C    1.214578   0.000000
     3  H    1.907331   1.155531   0.000000
     4  O    2.322596   1.215091   1.905988   0.000000
 Stoichiometry    CHO2(2)
 Framework group  C1[X(CHO2)]
 Deg. of freedom     6
 Full point group                 C1      NOp   1
 Largest Abelian subgroup         C1      NOp   1
 Largest concise Abelian subgroup C1      NOp   1
                         Standard orientation:                         
 ---------------------------------------------------------------------
 Center     Atomic      Atomic             Coordinates (Angstroms)
 Number     Number       Type             X           Y           Z
 ---------------------------------------------------------------------
      1          8           0       -1.161285   -0.158720    0.000010
      2          6           0       -0.000234    0.197875   -0.000037
      3          1           0        0.001207    1.353405    0.000052
      4          8           0        1.161310   -0.158862    0.000010
 ---------------------------------------------------------------------
 Rotational constants (GHZ):    163.9497414     11.7143459     10.9331623
 Standard basis: 6-311+G(d) (5D, 7F)
 There are    69 symmetry adapted basis functions of A   symmetry.
 Integral buffers will be    131072 words long.
 Raffenetti 2 integral format.
 Two-electron integral symmetry is turned on.
    69 basis functions,   113 primitive gaussians,    72 cartesian basis functions
    12 alpha electrons       11 beta electrons
       nuclear repulsion energy        63.5872822962 Hartrees.
 NAtoms=    4 NActive=    4 NUniq=    4 SFac= 7.50D-01 NAtFMM=   80 NAOKFM=F Big=F
 One-electron integrals computed using PRISM.
 NBasis=    69 RedAO= T  NBF=    69
 NBsUse=    69 1.00D-06 NBFU=    69
 Initial guess read from the read-write file.
 B after Tr=     0.000000    0.000000    0.000000
         Rot=    1.000000    0.000000    0.000000    0.000000 Ang=   0.00 deg.
 Initial guess orbital symmetries:
 Alpha Orbitals:
       Occupied  (A) (A) (A) (A) (A) (A) (A) (A) (A) (A) (A) (A)
       Virtual   (A) (A) (A) (A) (A) (A) (A) (A) (A) (A) (A) (A)
                 (A) (A) (A) (A) (A) (A) (A) (A) (A) (A) (A) (A)
                 (A) (A) (A) (A) (A) (A) (A) (A) (A) (A) (A) (A)
                 (A) (A) (A) (A) (A) (A) (A) (A) (A) (A) (A) (A)
                 (A) (A) (A) (A) (A) (A) (A) (A) (A)
 Beta  Orbitals:
       Occupied  (A) (A) (A) (A) (A) (A) (A) (A) (A) (A) (A)
       Virtual   (A) (A) (A) (A) (A) (A) (A) (A) (A) (A) (A) (A)
                 (A) (A) (A) (A) (A) (A) (A) (A) (A) (A) (A) (A)
                 (A) (A) (A) (A) (A) (A) (A) (A) (A) (A) (A) (A)
                 (A) (A) (A) (A) (A) (A) (A) (A) (A) (A) (A) (A)
                 (A) (A) (A) (A) (A) (A) (A) (A) (A) (A)
 Initial guess <Sx>= 0.0000 <Sy>= 0.0000 <Sz>= 0.5000 <S**2>= 0.7590 S= 0.5045
 Harris functional with IExCor= 1009 diagonalized for initial guess.
 ExpMin= 4.38D-02 ExpMax= 8.59D+03 ExpMxC= 1.30D+03 IAcc=2 IRadAn=         0 AccDes= 0.00D+00
 HarFok:  IExCor= 1009 AccDes= 0.00D+00 IRadAn=         0 IDoV= 1
 ScaDFX=  1.000000  1.000000  1.000000  1.000000
 FoFCou: FMM=F IPFlag=           0 FMFlag=      100000 FMFlg1=           0
         NFxFlg=           0 DoJE=T BraDBF=F KetDBF=T FulRan=T
         Omega=  0.000000  0.000000  1.000000  0.000000  0.000000 ICntrl=     500 IOpCl=  0
         NMat0=    1 NMatS0=    1 NMatT0=    0 NMatD0=    1 NMtDS0=    0 NMtDT0=    0
         I1Cent=           4 NGrid=           0.
 Petite list used in FoFCou.
 Requested convergence on RMS density matrix=1.00D-08 within 128 cycles.
 Requested convergence on MAX density matrix=1.00D-06.
 Requested convergence on             energy=1.00D-06.
 No special actions if energy rises.
 Keep R1 and R2 ints in memory in canonical form, NReq=7871122.
 SCF Done:  E(UM062X) =  -189.054022797     A.U. after   15 cycles
             Convg  =    0.1224D-08             -V/T =  2.0027
 <Sx>= 0.0000 <Sy>= 0.0000 <Sz>= 0.5000 <S**2>= 0.7590 S= 0.5045
 <L.S>= 0.000000000000E+00
 Annihilation of the first spin contaminant:
 S**2 before annihilation     0.7590,   after     0.7501
 Calling FoFJK, ICntrl=      2127 FMM=F ISym2X=0 I1Cent= 0 IOpClX= 1 NMat=1 NMatS=1 NMatT=0.
 ***** Axes restored to original set *****
 -------------------------------------------------------------------
 Center     Atomic                   Forces (Hartrees/Bohr)
 Number     Number              X              Y              Z
 -------------------------------------------------------------------
      1        8          -0.003465666   -0.001205618   -0.000034543
      2        6           0.004303724   -0.007218135   -0.000266917
      3        1          -0.003557550    0.005967188    0.000208969
      4        8           0.002719493    0.002456565    0.000092491
 -------------------------------------------------------------------
 Cartesian Forces:  Max     0.007218135 RMS     0.003486956

 GradGradGradGradGradGradGradGradGradGradGradGradGradGradGradGradGradGrad
 Berny optimization.
 Using GEDIIS/GDIIS optimizer.
 Internal  Forces:  Max     0.006949930 RMS     0.003282234
 Search for a local minimum.
 Step number   3 out of a maximum of   20
 All quantities printed in internal units (Hartrees-Bohrs-Radians)
 Mixed Optimization -- RFO/linear search
 Update second derivatives using D2CorX and points    1    2    3
 DE= -1.18D-03 DEPred=-9.25D-04 R= 1.28D+00
 SS=  1.41D+00  RLast= 8.81D-02 DXNew= 8.4853D-01 2.6421D-01
 Trust test= 1.28D+00 RLast= 8.81D-02 DXMaxT set to 5.05D-01
 The second derivative matrix:
                          R1        R2        R3        A1        A2
           R1           0.88599
           R2           0.04598   0.27269
           R3          -0.01461   0.04340   0.89391
           A1          -0.02771   0.03315  -0.02839   0.17841
           A2           0.06242  -0.06827   0.06151  -0.01635   0.21635
           A3          -0.02956   0.03414  -0.03019   0.01803  -0.01512
           D1           0.00017  -0.00015   0.00017  -0.00013   0.00015
                          A3        D1
           A3           0.17764
           D1          -0.00013   0.03926
 Use linear search instead of GDIIS.
     Eigenvalues ---    0.03926   0.14533   0.16014   0.33712   0.89460
     Eigenvalues ---    0.905971000.00000
 RFO step:  Lambda=-1.19273588D-04 EMin= 3.92645578D-02
 Quartic linear search produced a step of  0.32800.
 Iteration  1 RMS(Cart)=  0.00888198 RMS(Int)=  0.00002700
 Iteration  2 RMS(Cart)=  0.00002890 RMS(Int)=  0.00000000
 Iteration  3 RMS(Cart)=  0.00000000 RMS(Int)=  0.00000000
 Variable       Old X    -DE/DX   Delta X   Delta X   Delta X     New X
                                 (Linear)    (Quad)   (Total)
    R1        2.29522  -0.00365  -0.00823   0.00103  -0.00720   2.28802
    R2        2.18364   0.00695   0.01526   0.01736   0.03262   2.21626
    R3        2.29619  -0.00365  -0.00800   0.00096  -0.00704   2.28915
    A1        1.87003   0.00036  -0.00869   0.00364  -0.00505   1.86498
    A2        2.54563  -0.00055   0.01770  -0.00608   0.01162   2.55725
    A3        1.86753   0.00019  -0.00901   0.00244  -0.00657   1.86096
    D1       -3.14138  -0.00001   0.00001  -0.00015  -0.00013  -3.14151
         Item               Value     Threshold  Converged?
 Maximum Force            0.006950     0.000450     NO 
 RMS     Force            0.003282     0.000300     NO 
 Maximum Displacement     0.014340     0.001800     NO 
 RMS     Displacement     0.008888     0.001200     NO 
 Predicted change in Energy=-1.308423D-04
 GradGradGradGradGradGradGradGradGradGradGradGradGradGradGradGradGradGrad

                          Input orientation:                          
 ---------------------------------------------------------------------
 Center     Atomic      Atomic             Coordinates (Angstroms)
 Number     Number       Type             X           Y           Z
 ---------------------------------------------------------------------
      1          8           0        0.533253    0.254940    0.003543
      2          6           0       -0.644821   -0.024355   -0.006245
      3          1           0       -1.234770    0.988660    0.028485
      4          8           0       -1.473661   -0.907245   -0.036783
 ---------------------------------------------------------------------
                    Distance matrix (angstroms):
                    1          2          3          4
     1  O    0.000000
     2  C    1.210768   0.000000
     3  H    1.914386   1.172795   0.000000
     4  O    2.319484   1.211364   1.912011   0.000000
 Stoichiometry    CHO2(2)
 Framework group  C1[X(CHO2)]
 Deg. of freedom     6
 Full point group                 C1      NOp   1
 Largest Abelian subgroup         C1      NOp   1
 Largest concise Abelian subgroup C1      NOp   1
                         Standard orientation:                         
 ---------------------------------------------------------------------
 Center     Atomic      Atomic             Coordinates (Angstroms)
 Number     Number       Type             X           Y           Z
 ---------------------------------------------------------------------
      1          8           0       -1.159765   -0.157015    0.000004
      2          6           0       -0.000292    0.191671   -0.000014
      3          1           0        0.002121    1.364463    0.000019
      4          8           0        1.159719   -0.157297    0.000004
 ---------------------------------------------------------------------
 Rotational constants (GHZ):    164.7994662     11.7458005     10.9643362
 Standard basis: 6-311+G(d) (5D, 7F)
 There are    69 symmetry adapted basis functions of A   symmetry.
 Integral buffers will be    131072 words long.
 Raffenetti 2 integral format.
 Two-electron integral symmetry is turned on.
    69 basis functions,   113 primitive gaussians,    72 cartesian basis functions
    12 alpha electrons       11 beta electrons
       nuclear repulsion energy        63.6813461708 Hartrees.
 NAtoms=    4 NActive=    4 NUniq=    4 SFac= 7.50D-01 NAtFMM=   80 NAOKFM=F Big=F
 One-electron integrals computed using PRISM.
 NBasis=    69 RedAO= T  NBF=    69
 NBsUse=    69 1.00D-06 NBFU=    69
 Initial guess read from the read-write file.
 B after Tr=     0.000000    0.000000    0.000000
         Rot=    1.000000    0.000000    0.000000    0.000000 Ang=   0.00 deg.
 Initial guess orbital symmetries:
 Alpha Orbitals:
       Occupied  (A) (A) (A) (A) (A) (A) (A) (A) (A) (A) (A) (A)
       Virtual   (A) (A) (A) (A) (A) (A) (A) (A) (A) (A) (A) (A)
                 (A) (A) (A) (A) (A) (A) (A) (A) (A) (A) (A) (A)
                 (A) (A) (A) (A) (A) (A) (A) (A) (A) (A) (A) (A)
                 (A) (A) (A) (A) (A) (A) (A) (A) (A) (A) (A) (A)
                 (A) (A) (A) (A) (A) (A) (A) (A) (A)
 Beta  Orbitals:
       Occupied  (A) (A) (A) (A) (A) (A) (A) (A) (A) (A) (A)
       Virtual   (A) (A) (A) (A) (A) (A) (A) (A) (A) (A) (A) (A)
                 (A) (A) (A) (A) (A) (A) (A) (A) (A) (A) (A) (A)
                 (A) (A) (A) (A) (A) (A) (A) (A) (A) (A) (A) (A)
                 (A) (A) (A) (A) (A) (A) (A) (A) (A) (A) (A) (A)
                 (A) (A) (A) (A) (A) (A) (A) (A) (A) (A)
 Initial guess <Sx>= 0.0000 <Sy>= 0.0000 <Sz>= 0.5000 <S**2>= 0.7589 S= 0.5045
 Requested convergence on RMS density matrix=1.00D-08 within 128 cycles.
 Requested convergence on MAX density matrix=1.00D-06.
 Requested convergence on             energy=1.00D-06.
 No special actions if energy rises.
 Keep R1 and R2 ints in memory in canonical form, NReq=7871122.
 SCF Done:  E(UM062X) =  -189.054183995     A.U. after   14 cycles
             Convg  =    0.2089D-08             -V/T =  2.0026
 <Sx>= 0.0000 <Sy>= 0.0000 <Sz>= 0.5000 <S**2>= 0.7590 S= 0.5045
 <L.S>= 0.000000000000E+00
 Annihilation of the first spin contaminant:
 S**2 before annihilation     0.7590,   after     0.7501
 Calling FoFJK, ICntrl=      2127 FMM=F ISym2X=0 I1Cent= 0 IOpClX= 1 NMat=1 NMatS=1 NMatT=0.
 ***** Axes restored to original set *****
 -------------------------------------------------------------------
 Center     Atomic                   Forces (Hartrees/Bohr)
 Number     Number              X              Y              Z
 -------------------------------------------------------------------
      1        8          -0.000033556   -0.000499342   -0.000014385
      2        6           0.000857316   -0.001027796   -0.000042444
      3        1          -0.001131128    0.001802203    0.000063449
      4        8           0.000307367   -0.000275065   -0.000006619
 -------------------------------------------------------------------
 Cartesian Forces:  Max     0.001802203 RMS     0.000749746

 GradGradGradGradGradGradGradGradGradGradGradGradGradGradGradGradGradGrad
 Berny optimization.
 Using GEDIIS/GDIIS optimizer.
 Internal  Forces:  Max     0.002127543 RMS     0.000866267
 Search for a local minimum.
 Step number   4 out of a maximum of   20
 All quantities printed in internal units (Hartrees-Bohrs-Radians)
 Mixed Optimization -- En-DIIS/RFO-DIIS
 Update second derivatives using D2CorX and points    1    2    3    4
 DE= -1.61D-04 DEPred=-1.31D-04 R= 1.23D+00
 SS=  1.41D+00  RLast= 3.70D-02 DXNew= 8.4853D-01 1.1102D-01
 Trust test= 1.23D+00 RLast= 3.70D-02 DXMaxT set to 5.05D-01
 The second derivative matrix:
                          R1        R2        R3        A1        A2
           R1           0.90671
           R2           0.06667   0.20294
           R3           0.00872   0.06155   0.91988
           A1          -0.02254   0.02314  -0.02265   0.17661
           A2           0.05357  -0.05041   0.05146  -0.01196   0.20591
           A3          -0.02714   0.02770  -0.02719   0.01621  -0.01065
           D1           0.00015  -0.00004   0.00016  -0.00012   0.00013
                          A3        D1
           A3           0.17575
           D1          -0.00012   0.03926
 Use linear search instead of GDIIS.
     Eigenvalues ---    0.03926   0.12663   0.16035   0.27195   0.90368
     Eigenvalues ---    0.943351000.00000
 RFO step:  Lambda=-7.20035920D-06 EMin= 3.92645424D-02
 Quartic linear search produced a step of  0.31192.
 Iteration  1 RMS(Cart)=  0.00384626 RMS(Int)=  0.00000144
 Iteration  2 RMS(Cart)=  0.00000160 RMS(Int)=  0.00000000
 Iteration  3 RMS(Cart)=  0.00000000 RMS(Int)=  0.00000000
 Variable       Old X    -DE/DX   Delta X   Delta X   Delta X     New X
                                 (Linear)    (Quad)   (Total)
    R1        2.28802  -0.00015  -0.00225   0.00112  -0.00113   2.28689
    R2        2.21626   0.00213   0.01018   0.00193   0.01211   2.22837
    R3        2.28915  -0.00001  -0.00220   0.00131  -0.00089   2.28826
    A1        1.86498   0.00042  -0.00158   0.00207   0.00049   1.86547
    A2        2.55725  -0.00068   0.00362  -0.00318   0.00044   2.55769
    A3        1.86096   0.00026  -0.00205   0.00112  -0.00093   1.86003
    D1       -3.14151   0.00000  -0.00004  -0.00005  -0.00009   3.14159
         Item               Value     Threshold  Converged?
 Maximum Force            0.002128     0.000450     NO 
 RMS     Force            0.000866     0.000300     NO 
 Maximum Displacement     0.007145     0.001800     NO 
 RMS     Displacement     0.003846     0.001200     NO 
 Predicted change in Energy=-1.175289D-05
 GradGradGradGradGradGradGradGradGradGradGradGradGradGradGradGradGradGrad

                          Input orientation:                          
 ---------------------------------------------------------------------
 Center     Atomic      Atomic             Coordinates (Angstroms)
 Number     Number       Type             X           Y           Z
 ---------------------------------------------------------------------
      1          8           0        0.533762    0.253368    0.003495
      2          6           0       -0.643727   -0.025807   -0.006312
      3          1           0       -1.237414    0.992442    0.028619
      4          8           0       -1.472621   -0.908003   -0.036802
 ---------------------------------------------------------------------
                    Distance matrix (angstroms):
                    1          2          3          4
     1  O    0.000000
     2  C    1.210172   0.000000
     3  H    1.919355   1.179201   0.000000
     4  O    2.318616   1.210895   1.916062   0.000000
 Stoichiometry    CHO2(2)
 Framework group  C1[X(CHO2)]
 Deg. of freedom     6
 Full point group                 C1      NOp   1
 Largest Abelian subgroup         C1      NOp   1
 Largest concise Abelian subgroup C1      NOp   1
                         Standard orientation:                         
 ---------------------------------------------------------------------
 Center     Atomic      Atomic             Coordinates (Angstroms)
 Number     Number       Type             X           Y           Z
 ---------------------------------------------------------------------
      1          8           0        1.159356   -0.157108    0.000000
      2          6           0        0.000364    0.191108   -0.000001
      3          1           0       -0.002942    1.370304    0.000001
      4          8           0       -1.159261   -0.157511    0.000000
 ---------------------------------------------------------------------
 Rotational constants (GHZ):    164.0125197     11.7545864     10.9684877
 Standard basis: 6-311+G(d) (5D, 7F)
 There are    69 symmetry adapted basis functions of A   symmetry.
 Integral buffers will be    131072 words long.
 Raffenetti 2 integral format.
 Two-electron integral symmetry is turned on.
    69 basis functions,   113 primitive gaussians,    72 cartesian basis functions
    12 alpha electrons       11 beta electrons
       nuclear repulsion energy        63.6801615412 Hartrees.
 NAtoms=    4 NActive=    4 NUniq=    4 SFac= 7.50D-01 NAtFMM=   80 NAOKFM=F Big=F
 One-electron integrals computed using PRISM.
 NBasis=    69 RedAO= T  NBF=    69
 NBsUse=    69 1.00D-06 NBFU=    69
 Initial guess read from the read-write file.
 B after Tr=     0.000000    0.000000    0.000000
         Rot=    1.000000    0.000000    0.000000    0.000000 Ang=   0.00 deg.
 Initial guess orbital symmetries:
 Alpha Orbitals:
       Occupied  (A) (A) (A) (A) (A) (A) (A) (A) (A) (A) (A) (A)
       Virtual   (A) (A) (A) (A) (A) (A) (A) (A) (A) (A) (A) (A)
                 (A) (A) (A) (A) (A) (A) (A) (A) (A) (A) (A) (A)
                 (A) (A) (A) (A) (A) (A) (A) (A) (A) (A) (A) (A)
                 (A) (A) (A) (A) (A) (A) (A) (A) (A) (A) (A) (A)
                 (A) (A) (A) (A) (A) (A) (A) (A) (A)
 Beta  Orbitals:
       Occupied  (A) (A) (A) (A) (A) (A) (A) (A) (A) (A) (A)
       Virtual   (A) (A) (A) (A) (A) (A) (A) (A) (A) (A) (A) (A)
                 (A) (A) (A) (A) (A) (A) (A) (A) (A) (A) (A) (A)
                 (A) (A) (A) (A) (A) (A) (A) (A) (A) (A) (A) (A)
                 (A) (A) (A) (A) (A) (A) (A) (A) (A) (A) (A) (A)
                 (A) (A) (A) (A) (A) (A) (A) (A) (A) (A)
 Initial guess <Sx>= 0.0000 <Sy>= 0.0000 <Sz>= 0.5000 <S**2>= 0.8337 S= 0.5410
 Requested convergence on RMS density matrix=1.00D-08 within 128 cycles.
 Requested convergence on MAX density matrix=1.00D-06.
 Requested convergence on             energy=1.00D-06.
 No special actions if energy rises.
 Keep R1 and R2 ints in memory in canonical form, NReq=7871122.
 SCF Done:  E(UM062X) =  -189.054197363     A.U. after   17 cycles
             Convg  =    0.4120D-08             -V/T =  2.0027
 <Sx>= 0.0000 <Sy>= 0.0000 <Sz>= 0.5000 <S**2>= 0.7590 S= 0.5045
 <L.S>= 0.000000000000E+00
 Annihilation of the first spin contaminant:
 S**2 before annihilation     0.7590,   after     0.7501
 Calling FoFJK, ICntrl=      2127 FMM=F ISym2X=0 I1Cent= 0 IOpClX= 1 NMat=1 NMatS=1 NMatT=0.
 ***** Axes restored to original set *****
 -------------------------------------------------------------------
 Center     Atomic                   Forces (Hartrees/Bohr)
 Number     Number              X              Y              Z
 -------------------------------------------------------------------
      1        8          -0.000046189   -0.000131819   -0.000004749
      2        6           0.000272460    0.000238020    0.000008767
      3        1          -0.000128708    0.000058759    0.000001878
      4        8          -0.000097562   -0.000164960   -0.000005897
 -------------------------------------------------------------------
 Cartesian Forces:  Max     0.000272460 RMS     0.000131429

 GradGradGradGradGradGradGradGradGradGradGradGradGradGradGradGradGradGrad
 Berny optimization.
 Using GEDIIS/GDIIS optimizer.
 Internal  Forces:  Max     0.000187237 RMS     0.000114892
 Search for a local minimum.
 Step number   5 out of a maximum of   20
 All quantities printed in internal units (Hartrees-Bohrs-Radians)
 Mixed Optimization -- En-DIIS/RFO-DIIS
 Swaping is turned off.
 Update second derivatives using D2CorX and points    1    2    3    4    5
 DE= -1.34D-05 DEPred=-1.18D-05 R= 1.14D+00
 SS=  1.41D+00  RLast= 1.22D-02 DXNew= 8.4853D-01 3.6731D-02
 Trust test= 1.14D+00 RLast= 1.22D-02 DXMaxT set to 5.05D-01
 The second derivative matrix:
                          R1        R2        R3        A1        A2
           R1           0.90284
           R2           0.07462   0.18015
           R3           0.00895   0.04819   0.92488
           A1          -0.02810   0.01149  -0.03090   0.17273
           A2           0.06719  -0.04230   0.07030  -0.00616   0.19766
           A3          -0.03547   0.03123  -0.03809   0.01465  -0.00893
           D1           0.00019   0.00000   0.00023  -0.00010   0.00012
                          A3        D1
           A3           0.17597
           D1          -0.00013   0.03926
     Eigenvalues ---    0.03926   0.11176   0.16039   0.24528   0.90352
     Eigenvalues ---    0.951461000.00000
 En-DIIS/RFO-DIIS IScMMF=        0 using points:     5    4
 RFO step:  Lambda=-1.60773690D-07.
 DIIS coeffs:      1.05634     -0.05634
 Iteration  1 RMS(Cart)=  0.00047979 RMS(Int)=  0.00000012
 Iteration  2 RMS(Cart)=  0.00000011 RMS(Int)=  0.00000000
 Variable       Old X    -DE/DX   Delta X   Delta X   Delta X     New X
                                  (DIIS)     (GDIIS)  (Total)
    R1        2.28689  -0.00008  -0.00006   0.00000  -0.00007   2.28683
    R2        2.22837   0.00012   0.00068  -0.00021   0.00047   2.22884
    R3        2.28826   0.00019  -0.00005   0.00029   0.00024   2.28850
    A1        1.86547   0.00015   0.00003   0.00085   0.00088   1.86634
    A2        2.55769  -0.00012   0.00002  -0.00059  -0.00056   2.55713
    A3        1.86003  -0.00003  -0.00005  -0.00026  -0.00031   1.85972
    D1        3.14159   0.00000  -0.00001   0.00001   0.00001  -3.14159
         Item               Value     Threshold  Converged?
 Maximum Force            0.000187     0.000450     YES
 RMS     Force            0.000115     0.000300     YES
 Maximum Displacement     0.000841     0.001800     YES
 RMS     Displacement     0.000480     0.001200     YES
 Predicted change in Energy=-1.568787D-07
 Optimization completed.
    -- Stationary point found.
                           ----------------------------
                           !   Optimized Parameters   !
                           ! (Angstroms and Degrees)  !
 --------------------------                            --------------------------
 ! Name  Definition              Value          Derivative Info.                !
 --------------------------------------------------------------------------------
 ! R1    R(1,2)                  1.2102         -DE/DX =   -0.0001              !
 ! R2    R(2,3)                  1.1792         -DE/DX =    0.0001              !
 ! R3    R(2,4)                  1.2109         -DE/DX =    0.0002              !
 ! A1    A(1,2,3)              106.8834         -DE/DX =    0.0002              !
 ! A2    A(1,2,4)              146.5448         -DE/DX =   -0.0001              !
 ! A3    A(3,2,4)              106.5717         -DE/DX =    0.0                 !
 ! D1    D(1,2,4,3)           -180.0004         -DE/DX =    0.0                 !
 --------------------------------------------------------------------------------
 GradGradGradGradGradGradGradGradGradGradGradGradGradGradGradGradGradGrad

                          Input orientation:                          
 ---------------------------------------------------------------------
 Center     Atomic      Atomic             Coordinates (Angstroms)
 Number     Number       Type             X           Y           Z
 ---------------------------------------------------------------------
      1          8           0        0.533762    0.253368    0.003495
      2          6           0       -0.643727   -0.025807   -0.006312
      3          1           0       -1.237414    0.992442    0.028619
      4          8           0       -1.472621   -0.908003   -0.036802
 ---------------------------------------------------------------------
                    Distance matrix (angstroms):
                    1          2          3          4
     1  O    0.000000
     2  C    1.210172   0.000000
     3  H    1.919355   1.179201   0.000000
     4  O    2.318616   1.210895   1.916062   0.000000
 Stoichiometry    CHO2(2)
 Framework group  C1[X(CHO2)]
 Deg. of freedom     6
 Full point group                 C1      NOp   1
 Largest Abelian subgroup         C1      NOp   1
 Largest concise Abelian subgroup C1      NOp   1
                         Standard orientation:                         
 ---------------------------------------------------------------------
 Center     Atomic      Atomic             Coordinates (Angstroms)
 Number     Number       Type             X           Y           Z
 ---------------------------------------------------------------------
      1          8           0        1.159356   -0.157108    0.000000
      2          6           0        0.000364    0.191108   -0.000001
      3          1           0       -0.002942    1.370304    0.000001
      4          8           0       -1.159261   -0.157511    0.000000
 ---------------------------------------------------------------------
 Rotational constants (GHZ):    164.0125197     11.7545864     10.9684877

 **********************************************************************

            Population analysis using the SCF density.

 **********************************************************************

 Orbital symmetries:
 Alpha Orbitals:
       Occupied  (A) (A) (A) (A) (A) (A) (A) (A) (A) (A) (A) (A)
       Virtual   (A) (A) (A) (A) (A) (A) (A) (A) (A) (A) (A) (A)
                 (A) (A) (A) (A) (A) (A) (A) (A) (A) (A) (A) (A)
                 (A) (A) (A) (A) (A) (A) (A) (A) (A) (A) (A) (A)
                 (A) (A) (A) (A) (A) (A) (A) (A) (A) (A) (A) (A)
                 (A) (A) (A) (A) (A) (A) (A) (A) (A)
 Beta  Orbitals:
       Occupied  (A) (A) (A) (A) (A) (A) (A) (A) (A) (A) (A)
       Virtual   (A) (A) (A) (A) (A) (A) (A) (A) (A) (A) (A) (A)
                 (A) (A) (A) (A) (A) (A) (A) (A) (A) (A) (A) (A)
                 (A) (A) (A) (A) (A) (A) (A) (A) (A) (A) (A) (A)
                 (A) (A) (A) (A) (A) (A) (A) (A) (A) (A) (A) (A)
                 (A) (A) (A) (A) (A) (A) (A) (A) (A) (A)
 The electronic state is 2-A.
 Alpha  occ. eigenvalues --  -19.70223 -19.70111 -10.72465  -1.28443  -1.21692
 Alpha  occ. eigenvalues --   -0.73573  -0.63979  -0.61130  -0.58524  -0.46513
 Alpha  occ. eigenvalues --   -0.43918  -0.41103
 Alpha virt. eigenvalues --    0.01648   0.03052   0.03691   0.05093   0.05700
 Alpha virt. eigenvalues --    0.15684   0.18886   0.19145   0.20813   0.22207
 Alpha virt. eigenvalues --    0.26405   0.26678   0.26972   0.31772   0.39063
 Alpha virt. eigenvalues --    0.48493   0.52590   0.54521   0.62764   0.75357
 Alpha virt. eigenvalues --    0.84529   1.05809   1.06706   1.09388   1.13265
 Alpha virt. eigenvalues --    1.14553   1.15814   1.24843   1.40145   1.42636
 Alpha virt. eigenvalues --    1.52429   1.54912   1.67793   2.01880   2.34869
 Alpha virt. eigenvalues --    2.60779   2.81199   2.81421   2.87772   2.89236
 Alpha virt. eigenvalues --    3.07277   3.20609   3.22831   3.42392   3.42640
 Alpha virt. eigenvalues --    3.52197   3.78270   3.89053   5.06012   5.06488
 Alpha virt. eigenvalues --    5.07908   5.08168   5.64227   5.81464  24.02221
 Alpha virt. eigenvalues --   49.95976  49.98178
  Beta  occ. eigenvalues --  -19.69421 -19.69326 -10.72604  -1.26019  -1.18802
  Beta  occ. eigenvalues --   -0.68314  -0.61895  -0.57731  -0.57719  -0.42266
  Beta  occ. eigenvalues --   -0.38957
  Beta virt. eigenvalues --   -0.17472   0.01558   0.03359   0.04135   0.04997
  Beta virt. eigenvalues --    0.05762   0.15358   0.18749   0.18765   0.20973
  Beta virt. eigenvalues --    0.22701   0.26492   0.26799   0.26912   0.31696
  Beta virt. eigenvalues --    0.39509   0.48564   0.53905   0.54248   0.61528
  Beta virt. eigenvalues --    0.75794   0.84360   1.06319   1.07505   1.11516
  Beta virt. eigenvalues --    1.14655   1.14993   1.16462   1.24509   1.40393
  Beta virt. eigenvalues --    1.42793   1.52602   1.55817   1.68500   2.04138
  Beta virt. eigenvalues --    2.36903   2.60105   2.83191   2.83463   2.90112
  Beta virt. eigenvalues --    2.91185   3.07626   3.20758   3.23021   3.43616
  Beta virt. eigenvalues --    3.43659   3.53005   3.79644   3.90012   5.07179
  Beta virt. eigenvalues --    5.07620   5.10448   5.11123   5.65505   5.82103
  Beta virt. eigenvalues --   24.02045  49.95188  49.97397
          Condensed to atoms (all electrons):
              1          2          3          4
     1  O    8.075395   0.310292  -0.070666  -0.150333
     2  C    0.310292   5.010128   0.327531   0.308483
     3  H   -0.070666   0.327531   0.531907  -0.071582
     4  O   -0.150333   0.308483  -0.071582   8.075119
 Mulliken atomic charges:
              1
     1  O   -0.164689
     2  C    0.043566
     3  H    0.282809
     4  O   -0.161686
 Sum of Mulliken atomic charges =   0.00000
 Mulliken charges with hydrogens summed into heavy atoms:
              1
     1  O   -0.164689
     2  C    0.326375
     4  O   -0.161686
 Sum of Mulliken charges with hydrogens summed into heavy atoms =   0.00000
          Atomic-Atomic Spin Densities.
              1          2          3          4
     1  O    0.331767   0.009797  -0.070160   0.078567
     2  C    0.009797  -0.192651   0.110780   0.009279
     3  H   -0.070160   0.110780   0.382932  -0.070228
     4  O    0.078567   0.009279  -0.070228   0.341882
 Mulliken atomic spin densities:
              1
     1  O    0.349972
     2  C   -0.062795
     3  H    0.353324
     4  O    0.359499
 Sum of Mulliken atomic spin densities =   1.00000
 Electronic spatial extent (au):  <R**2>=            124.2100
 Charge=              0.0000 electrons
 Dipole moment (field-independent basis, Debye):
    X=             -0.0152    Y=              1.7610    Z=              0.0000  Tot=              1.7610
 Quadrupole moment (field-independent basis, Debye-Ang):
   XX=            -21.4093   YY=            -14.1986   ZZ=            -16.1975
   XY=              0.0003   XZ=              0.0000   YZ=              0.0000
 Traceless Quadrupole moment (field-independent basis, Debye-Ang):
   XX=             -4.1408   YY=              3.0698   ZZ=              1.0710
   XY=              0.0003   XZ=              0.0000   YZ=              0.0000
 Octapole moment (field-independent basis, Debye-Ang**2):
  XXX=             -0.0241  YYY=              2.2824  ZZZ=              0.0000  XYY=             -0.0175
  XXY=             -0.1325  XXZ=              0.0000  XZZ=              0.0001  YZZ=             -0.2404
  YYZ=              0.0000  XYZ=              0.0000
 Hexadecapole moment (field-independent basis, Debye-Ang**3):
 XXXX=           -110.3314 YYYY=            -19.6733 ZZZZ=            -13.6716 XXXY=              0.0063
 XXXZ=              0.0000 YYYX=              0.0039 YYYZ=              0.0000 ZZZX=              0.0000
 ZZZY=              0.0000 XXYY=            -21.4641 XXZZ=            -20.0829 YYZZ=             -6.3755
 XXYZ=              0.0000 YYXZ=              0.0000 ZZXY=              0.0013
 N-N= 6.368016154119D+01 E-N=-8.525260167869D+02  KE= 2.815383192120D+02
                          Isotropic Fermi Contact Couplings
        Atom                 a.u.       MegaHertz       Gauss      10(-4) cm-1
     1  O(17)              0.06958     -42.17634     -15.04957     -14.06851
     2  C(13)             -0.08520     -95.78653     -34.17901     -31.95095
     3  H(1)               0.16052     717.49245     256.01914     239.32972
     4  O(17)              0.07106     -43.07702     -15.37095     -14.36895
 --------------------------------------------------------
       Center         ----  Spin Dipole Couplings  ----
                      3XX-RR        3YY-RR        3ZZ-RR
 --------------------------------------------------------
     1   Atom       -0.775937      1.548493     -0.772557
     2   Atom        0.046683      0.044410     -0.091093
     3   Atom       -0.019358      0.031503     -0.012145
     4   Atom       -0.796834      1.584480     -0.787646
 --------------------------------------------------------
                        XY            XZ            YZ
 --------------------------------------------------------
     1   Atom       -0.354992      0.000000      0.000000
     2   Atom        0.000327      0.000000      0.000000
     3   Atom       -0.000179      0.000000      0.000000
     4   Atom        0.351717      0.000000      0.000000
 --------------------------------------------------------


 ---------------------------------------------------------------------------------
              Anisotropic Spin Dipole Couplings in Principal Axis System
 ---------------------------------------------------------------------------------

       Atom             a.u.   MegaHertz   Gauss  10(-4) cm-1        Axes

              Baa    -0.8289    59.982    21.403    20.008  0.9890  0.1477  0.0000
     1 O(17)  Bbb    -0.7726    55.902    19.947    18.647  0.0000  0.0000  1.0000
              Bcc     1.6015  -115.883   -41.350   -38.655 -0.1477  0.9890  0.0000
 
              Baa    -0.0911   -12.224    -4.362    -4.077  0.0000  0.0000  1.0000
     2 C(13)  Bbb     0.0444     5.953     2.124     1.986 -0.1394  0.9902  0.0000
              Bcc     0.0467     6.271     2.237     2.092  0.9902  0.1394  0.0000
 
              Baa    -0.0194   -10.329    -3.686    -3.445  1.0000  0.0035  0.0000
     3 H(1)   Bbb    -0.0121    -6.480    -2.312    -2.161  0.0000  0.0000  1.0000
              Bcc     0.0315    16.809     5.998     5.607 -0.0035  1.0000  0.0000
 
              Baa    -0.8477    61.339    21.887    20.460  0.9897 -0.1431  0.0000
     4 O(17)  Bbb    -0.7876    56.993    20.337    19.011  0.0000  0.0000  1.0000
              Bcc     1.6353  -118.332   -42.224   -39.471  0.1431  0.9897  0.0000
 

 ---------------------------------------------------------------------------------

 1\1\GINC-N0296\FOpt\UM062X\6-311+G(d)\C1H1O2(2)\WAB665\08-Mar-2017\0\\
 # opt M062X/6-311+G* geom=connectivity\\Title Card Required\\0,2\O,0.5
 337621588,0.2533684595,0.003495272\C,-0.6437269104,-0.0258069205,-0.00
 63119398\H,-1.2374140186,0.9924415965,0.028618565\O,-1.4726212298,-0.9
 080031355,-0.0368018972\\Version=EM64L-G09RevA.02\State=2-A\HF=-189.05
 41974\S2=0.759014\S2-1=0.\S2A=0.750054\RMSD=4.120e-09\RMSF=1.314e-04\D
 ipole=-0.3523243,0.5962275,0.0204504\Quadrupole=-1.7329783,0.9366061,0
 .7963721,-2.3230629,-0.0803521,0.0044328\PG=C01 [X(C1H1O2)]\\@


 I DON'T PRETEND TO UNDERSTAND THE UNIVERSE --
 IT'S A GREAT DEAL BIGGER THAN I AM.
       -- ATTR. TO WILLIAM ALLINGHAM (1828-89)
 Job cpu time:  0 days  0 hours  3 minutes 18.1 seconds.
 File lengths (MBytes):  RWF=    172 Int=      0 D2E=      0 Chk=      4 Scr=      4
 Normal termination of Gaussian 09 at Wed Mar  8 15:17:14 2017.
