 Entering Gaussian System, Link 0=g09
 Input=BAM_FOR_2.com
 Output=BAM_FOR_2.log
 Initial command:
 /gscratch/pfaendtner/codes/G09/g09/l1.exe /gscratch/pfaendtner/wesley/gaussian/Gau-24248.inp -scrdir=/gscratch/pfaendtner/wesley/gaussian/
 Entering Link 1 = /gscratch/pfaendtner/codes/G09/g09/l1.exe PID=     24249.
  
 Copyright (c) 1988,1990,1992,1993,1995,1998,2003,2009, Gaussian, Inc.
                  All Rights Reserved.
  
 This is part of the Gaussian(R) 09 program.  It is based on
 the Gaussian(R) 03 system (copyright 2003, Gaussian, Inc.),
 the Gaussian(R) 98 system (copyright 1998, Gaussian, Inc.),
 the Gaussian(R) 94 system (copyright 1995, Gaussian, Inc.),
 the Gaussian 92(TM) system (copyright 1992, Gaussian, Inc.),
 the Gaussian 90(TM) system (copyright 1990, Gaussian, Inc.),
 the Gaussian 88(TM) system (copyright 1988, Gaussian, Inc.),
 the Gaussian 86(TM) system (copyright 1986, Carnegie Mellon
 University), and the Gaussian 82(TM) system (copyright 1983,
 Carnegie Mellon University). Gaussian is a federally registered
 trademark of Gaussian, Inc.
  
 This software contains proprietary and confidential information,
 including trade secrets, belonging to Gaussian, Inc.
  
 This software is provided under written license and may be
 used, copied, transmitted, or stored only in accord with that
 written license.
  
 The following legend is applicable only to US Government
 contracts under FAR:
  
                    RESTRICTED RIGHTS LEGEND
  
 Use, reproduction and disclosure by the US Government is
 subject to restrictions as set forth in subparagraphs (a)
 and (c) of the Commercial Computer Software - Restricted
 Rights clause in FAR 52.227-19.
  
 Gaussian, Inc.
 340 Quinnipiac St., Bldg. 40, Wallingford CT 06492
  
  
 ---------------------------------------------------------------
 Warning -- This program may not be used in any manner that
 competes with the business of Gaussian, Inc. or will provide
 assistance to any competitor of Gaussian, Inc.  The licensee
 of this program is prohibited from giving any competitor of
 Gaussian, Inc. access to this program.  By using this program,
 the user acknowledges that Gaussian, Inc. is engaged in the
 business of creating and licensing software in the field of
 computational chemistry and represents and warrants to the
 licensee that it is not a competitor of Gaussian, Inc. and that
 it will not use this program in any manner prohibited above.
 ---------------------------------------------------------------
  

 Cite this work as:
 Gaussian 09, Revision A.02,
 M. J. Frisch, G. W. Trucks, H. B. Schlegel, G. E. Scuseria, 
 M. A. Robb, J. R. Cheeseman, G. Scalmani, V. Barone, B. Mennucci, 
 G. A. Petersson, H. Nakatsuji, M. Caricato, X. Li, H. P. Hratchian, 
 A. F. Izmaylov, J. Bloino, G. Zheng, J. L. Sonnenberg, M. Hada, 
 M. Ehara, K. Toyota, R. Fukuda, J. Hasegawa, M. Ishida, T. Nakajima, 
 Y. Honda, O. Kitao, H. Nakai, T. Vreven, J. A. Montgomery, Jr., 
 J. E. Peralta, F. Ogliaro, M. Bearpark, J. J. Heyd, E. Brothers, 
 K. N. Kudin, V. N. Staroverov, R. Kobayashi, J. Normand, 
 K. Raghavachari, A. Rendell, J. C. Burant, S. S. Iyengar, J. Tomasi, 
 M. Cossi, N. Rega, J. M. Millam, M. Klene, J. E. Knox, J. B. Cross, 
 V. Bakken, C. Adamo, J. Jaramillo, R. Gomperts, R. E. Stratmann, 
 O. Yazyev, A. J. Austin, R. Cammi, C. Pomelli, J. W. Ochterski, 
 R. L. Martin, K. Morokuma, V. G. Zakrzewski, G. A. Voth, 
 P. Salvador, J. J. Dannenberg, S. Dapprich, A. D. Daniels, 
 O. Farkas, J. B. Foresman, J. V. Ortiz, J. Cioslowski, 
 and D. J. Fox, Gaussian, Inc., Wallingford CT, 2009.
 
 ******************************************
 Gaussian 09:  EM64L-G09RevA.02 11-Jun-2009
                 8-Mar-2017 
 ******************************************
 %chk=BAM_FOR_2.chk
 %nprocshared=2
 Will use up to    2 processors via shared memory.
 --------------------------------------
 # opt M062X/6-311+G* geom=connectivity
 --------------------------------------
 1/14=-1,18=20,19=15,26=3,38=1,57=2/1,3;
 2/9=110,12=2,17=6,18=5,40=1/2;
 3/5=4,6=6,7=11,11=2,16=1,25=1,30=1,71=1,74=-55/1,2,3;
 4//1;
 5/5=2,38=5/2;
 6/7=2,8=2,9=2,10=2,28=1/1;
 7//1,2,3,16;
 1/14=-1,18=20,19=15/3(2);
 2/9=110/2;
 99//99;
 2/9=110/2;
 3/5=4,6=6,7=11,11=2,16=1,25=1,30=1,71=1,74=-55/1,2,3;
 4/5=5,16=3/1;
 5/5=2,38=5/2;
 7//1,2,3,16;
 1/14=-1,18=20,19=15/3(-5);
 2/9=110/2;
 6/7=2,8=2,9=2,10=2,19=2,28=1/1;
 99/9=1/99;
 -------------------
 Title Card Required
 -------------------
 Symbolic Z-matrix:
 Charge =  0 Multiplicity = 1
 C(PDBName=C1,ResName=BAM,ResNum=1) -2.11316  -0.83181   0.11398 
 H(PDBName=H1,ResName=BAM,ResNum=1) -1.85475  -1.84087   0.35879 
 H(PDBName=H2,ResName=BAM,ResNum=1) -1.67421  -0.56921  -0.82584 
 H(PDBName=H3,ResName=BAM,ResNum=1) -3.17735  -0.74212   0.04809 
 C(PDBName=C2,ResName=BAM,ResNum=1) -1.58517   0.11342   1.20913 
 H(PDBName=H4,ResName=BAM,ResNum=1) -1.84358   1.12248   0.96433 
 H(PDBName=H5,ResName=BAM,ResNum=1) -2.02411  -0.14918   2.14896 
 C(PDBName=C3,ResName=BAM,ResNum=1) -0.05352  -0.01567   1.30398 
 H(PDBName=H6,ResName=BAM,ResNum=1)  0.38542   0.24694   0.36416 
 H(PDBName=H7,ResName=BAM,ResNum=1)  0.20488  -1.02472   1.54878 
 C(PDBName=C4,ResName=BAM,ResNum=1)  0.47446   0.92957   2.39913 
 H(PDBName=H8,ResName=BAM,ResNum=1)  0.03552   0.66697   3.33895 
 H(PDBName=H9,ResName=BAM,ResNum=1)  0.21605   1.93863   2.15432 
 N(PDBName=N1,ResName=BAM,ResNum=1)  1.93649   0.80635   2.48966 
 H(PDBName=H10,ResName=BAM,ResNum=1)  2.27933   1.42014   3.2008 
 H(PDBName=H11,ResName=BAM,ResNum=1)  2.17799  -0.13669   2.71845 
 H(PDBName=H12,ResName=BAM,ResNum=1)  2.34671   1.05178   1.61132 
 C                    -1.10998   3.15201   1.20039 
 H                    -0.58324   3.89693   1.75944 
 O                    -2.30956   3.34315   0.87169 
 O                    -0.52989   2.08479   0.8716 
 

 GradGradGradGradGradGradGradGradGradGradGradGradGradGradGradGradGradGrad
 Berny optimization.
 Initialization pass.
                           ----------------------------
                           !    Initial Parameters    !
                           ! (Angstroms and Degrees)  !
 --------------------------                            --------------------------
 ! Name  Definition              Value          Derivative Info.                !
 --------------------------------------------------------------------------------
 ! R1    R(1,2)                  1.07           estimate D2E/DX2                !
 ! R2    R(1,3)                  1.07           estimate D2E/DX2                !
 ! R3    R(1,4)                  1.07           estimate D2E/DX2                !
 ! R4    R(1,5)                  1.54           estimate D2E/DX2                !
 ! R5    R(5,6)                  1.07           estimate D2E/DX2                !
 ! R6    R(5,7)                  1.07           estimate D2E/DX2                !
 ! R7    R(5,8)                  1.54           estimate D2E/DX2                !
 ! R8    R(6,21)                 1.6311         estimate D2E/DX2                !
 ! R9    R(8,9)                  1.07           estimate D2E/DX2                !
 ! R10   R(8,10)                 1.07           estimate D2E/DX2                !
 ! R11   R(8,11)                 1.54           estimate D2E/DX2                !
 ! R12   R(11,12)                1.07           estimate D2E/DX2                !
 ! R13   R(11,13)                1.07           estimate D2E/DX2                !
 ! R14   R(11,14)                1.47           estimate D2E/DX2                !
 ! R15   R(13,21)                1.491          estimate D2E/DX2                !
 ! R16   R(14,15)                1.0            estimate D2E/DX2                !
 ! R17   R(14,16)                1.0            estimate D2E/DX2                !
 ! R18   R(14,17)                1.0            estimate D2E/DX2                !
 ! R19   R(18,19)                1.07           estimate D2E/DX2                !
 ! R20   R(18,20)                1.2584         estimate D2E/DX2                !
 ! R21   R(18,21)                1.2584         estimate D2E/DX2                !
 ! A1    A(2,1,3)              109.4712         estimate D2E/DX2                !
 ! A2    A(2,1,4)              109.4712         estimate D2E/DX2                !
 ! A3    A(2,1,5)              109.4712         estimate D2E/DX2                !
 ! A4    A(3,1,4)              109.4712         estimate D2E/DX2                !
 ! A5    A(3,1,5)              109.4712         estimate D2E/DX2                !
 ! A6    A(4,1,5)              109.4712         estimate D2E/DX2                !
 ! A7    A(1,5,6)              109.4712         estimate D2E/DX2                !
 ! A8    A(1,5,7)              109.4712         estimate D2E/DX2                !
 ! A9    A(1,5,8)              109.4712         estimate D2E/DX2                !
 ! A10   A(6,5,7)              109.4712         estimate D2E/DX2                !
 ! A11   A(6,5,8)              109.4712         estimate D2E/DX2                !
 ! A12   A(7,5,8)              109.4712         estimate D2E/DX2                !
 ! A13   A(5,6,21)             112.0169         estimate D2E/DX2                !
 ! A14   A(5,8,9)              109.4712         estimate D2E/DX2                !
 ! A15   A(5,8,10)             109.4712         estimate D2E/DX2                !
 ! A16   A(5,8,11)             109.4712         estimate D2E/DX2                !
 ! A17   A(9,8,10)             109.4712         estimate D2E/DX2                !
 ! A18   A(9,8,11)             109.4712         estimate D2E/DX2                !
 ! A19   A(10,8,11)            109.4712         estimate D2E/DX2                !
 ! A20   A(8,11,12)            109.4712         estimate D2E/DX2                !
 ! A21   A(8,11,13)            109.4712         estimate D2E/DX2                !
 ! A22   A(8,11,14)            109.4712         estimate D2E/DX2                !
 ! A23   A(12,11,13)           109.4712         estimate D2E/DX2                !
 ! A24   A(12,11,14)           109.4712         estimate D2E/DX2                !
 ! A25   A(13,11,14)           109.4712         estimate D2E/DX2                !
 ! A26   A(11,13,21)           114.2105         estimate D2E/DX2                !
 ! A27   A(11,14,15)           109.4712         estimate D2E/DX2                !
 ! A28   A(11,14,16)           109.4712         estimate D2E/DX2                !
 ! A29   A(11,14,17)           109.4712         estimate D2E/DX2                !
 ! A30   A(15,14,16)           109.4712         estimate D2E/DX2                !
 ! A31   A(15,14,17)           109.4712         estimate D2E/DX2                !
 ! A32   A(16,14,17)           109.4712         estimate D2E/DX2                !
 ! A33   A(19,18,20)           120.0            estimate D2E/DX2                !
 ! A34   A(19,18,21)           120.0            estimate D2E/DX2                !
 ! A35   A(20,18,21)           120.0            estimate D2E/DX2                !
 ! A36   A(6,21,13)            107.2289         estimate D2E/DX2                !
 ! A37   A(6,21,18)             96.5587         estimate D2E/DX2                !
 ! A38   A(13,21,18)            95.105          estimate D2E/DX2                !
 ! D1    D(2,1,5,6)            180.0            estimate D2E/DX2                !
 ! D2    D(2,1,5,7)            -60.0            estimate D2E/DX2                !
 ! D3    D(2,1,5,8)             60.0            estimate D2E/DX2                !
 ! D4    D(3,1,5,6)             60.0            estimate D2E/DX2                !
 ! D5    D(3,1,5,7)            180.0            estimate D2E/DX2                !
 ! D6    D(3,1,5,8)            -60.0            estimate D2E/DX2                !
 ! D7    D(4,1,5,6)            -60.0            estimate D2E/DX2                !
 ! D8    D(4,1,5,7)             60.0            estimate D2E/DX2                !
 ! D9    D(4,1,5,8)           -180.0            estimate D2E/DX2                !
 ! D10   D(1,5,6,21)          -122.7523         estimate D2E/DX2                !
 ! D11   D(7,5,6,21)           117.2477         estimate D2E/DX2                !
 ! D12   D(8,5,6,21)            -2.7523         estimate D2E/DX2                !
 ! D13   D(1,5,8,9)             60.0            estimate D2E/DX2                !
 ! D14   D(1,5,8,10)           -60.0            estimate D2E/DX2                !
 ! D15   D(1,5,8,11)           180.0            estimate D2E/DX2                !
 ! D16   D(6,5,8,9)            -60.0            estimate D2E/DX2                !
 ! D17   D(6,5,8,10)           180.0            estimate D2E/DX2                !
 ! D18   D(6,5,8,11)            60.0            estimate D2E/DX2                !
 ! D19   D(7,5,8,9)           -180.0            estimate D2E/DX2                !
 ! D20   D(7,5,8,10)            60.0            estimate D2E/DX2                !
 ! D21   D(7,5,8,11)           -60.0            estimate D2E/DX2                !
 ! D22   D(5,6,21,13)          -53.9474         estimate D2E/DX2                !
 ! D23   D(5,6,21,18)         -151.384          estimate D2E/DX2                !
 ! D24   D(5,8,11,12)           60.0            estimate D2E/DX2                !
 ! D25   D(5,8,11,13)          -60.0            estimate D2E/DX2                !
 ! D26   D(5,8,11,14)          180.0            estimate D2E/DX2                !
 ! D27   D(9,8,11,12)          180.0            estimate D2E/DX2                !
 ! D28   D(9,8,11,13)           60.0            estimate D2E/DX2                !
 ! D29   D(9,8,11,14)          -60.0            estimate D2E/DX2                !
 ! D30   D(10,8,11,12)         -60.0            estimate D2E/DX2                !
 ! D31   D(10,8,11,13)         180.0            estimate D2E/DX2                !
 ! D32   D(10,8,11,14)          60.0            estimate D2E/DX2                !
 ! D33   D(8,11,13,21)          -0.6035         estimate D2E/DX2                !
 ! D34   D(12,11,13,21)       -120.6035         estimate D2E/DX2                !
 ! D35   D(14,11,13,21)        119.3965         estimate D2E/DX2                !
 ! D36   D(8,11,14,15)        -180.0            estimate D2E/DX2                !
 ! D37   D(8,11,14,16)         -60.0            estimate D2E/DX2                !
 ! D38   D(8,11,14,17)          60.0            estimate D2E/DX2                !
 ! D39   D(12,11,14,15)        -60.0            estimate D2E/DX2                !
 ! D40   D(12,11,14,16)         60.0            estimate D2E/DX2                !
 ! D41   D(12,11,14,17)        180.0            estimate D2E/DX2                !
 ! D42   D(13,11,14,15)         60.0            estimate D2E/DX2                !
 ! D43   D(13,11,14,16)        180.0            estimate D2E/DX2                !
 ! D44   D(13,11,14,17)        -60.0            estimate D2E/DX2                !
 ! D45   D(11,13,21,6)          55.2653         estimate D2E/DX2                !
 ! D46   D(11,13,21,18)        153.7627         estimate D2E/DX2                !
 ! D47   D(19,18,21,6)         146.8602         estimate D2E/DX2                !
 ! D48   D(19,18,21,13)         38.8251         estimate D2E/DX2                !
 ! D49   D(20,18,21,6)         -33.1398         estimate D2E/DX2                !
 ! D50   D(20,18,21,13)       -141.1749         estimate D2E/DX2                !
 --------------------------------------------------------------------------------
 Trust Radius=3.00D-01 FncErr=1.00D-07 GrdErr=1.00D-06
 Number of steps in this run= 119 maximum allowed number of steps= 126.
 GradGradGradGradGradGradGradGradGradGradGradGradGradGradGradGradGradGrad

                          Input orientation:                          
 ---------------------------------------------------------------------
 Center     Atomic      Atomic             Coordinates (Angstroms)
 Number     Number       Type             X           Y           Z
 ---------------------------------------------------------------------
      1          6           0       -2.113156   -0.831815    0.113984
      2          1           0       -1.854749   -1.840872    0.358789
      3          1           0       -1.674214   -0.569208   -0.825839
      4          1           0       -3.177351   -0.742121    0.048085
      5          6           0       -1.585171    0.113425    1.209134
      6          1           0       -1.843577    1.122482    0.964329
      7          1           0       -2.024113   -0.149182    2.148957
      8          6           0       -0.053524   -0.015667    1.303979
      9          1           0        0.385418    0.246940    0.364156
     10          1           0        0.204882   -1.024724    1.548784
     11          6           0        0.474461    0.929573    2.399129
     12          1           0        0.035519    0.666966    3.338952
     13          1           0        0.216054    1.938630    2.154324
     14          7           0        1.936487    0.806349    2.489663
     15          1           0        2.279334    1.420141    3.200799
     16          1           0        2.177988   -0.136695    2.718453
     17          1           0        2.346713    1.051776    1.611323
     18          6           0       -1.109983    3.152012    1.200386
     19          1           0       -0.583243    3.896931    1.759441
     20          8           0       -2.309564    3.343152    0.871687
     21          8           0       -0.529888    2.084793    0.871596
 ---------------------------------------------------------------------
                    Distance matrix (angstroms):
                    1          2          3          4          5
     1  C    0.000000
     2  H    1.070000   0.000000
     3  H    1.070000   1.747303   0.000000
     4  H    1.070000   1.747303   1.747303   0.000000
     5  C    1.540000   2.148263   2.148263   2.148263   0.000000
     6  H    2.148263   3.024610   2.468846   2.468846   1.070000
     7  H    2.148263   2.468846   3.024610   2.468846   1.070000
     8  C    2.514809   2.732978   2.732978   3.444314   1.540000
     9  H    2.732978   3.062243   2.514809   3.710993   2.148263
    10  H    2.732978   2.514809   3.062243   3.710993   2.148263
    11  C    3.875582   4.154945   4.154945   4.653783   2.514809
    12  H    4.154945   4.329403   4.668704   4.810184   2.732978
    13  H    4.154945   4.668704   4.329403   4.810184   2.732978
    14  N    4.972628   5.091352   5.091352   5.874555   3.810770
    15  H    5.821830   5.983466   5.983466   6.662612   4.539673
    16  H    5.067580   4.973450   5.252479   6.014737   4.062261
    17  H    5.067580   5.252479   4.973450   6.014737   4.062261
    18  C    4.249412   5.117797   4.274509   4.556982   3.075531
    19  H    5.235379   6.041600   5.274494   5.583810   3.952418
    20  O    4.247709   5.229151   4.311824   4.256857   3.327124
    21  O    3.404014   4.174813   3.351789   3.959630   2.261381
                    6          7          8          9         10
     6  H    0.000000
     7  H    1.747303   0.000000
     8  C    2.148263   2.148263   0.000000
     9  H    2.468846   3.024610   1.070000   0.000000
    10  H    3.024610   2.468846   1.070000   1.747303   0.000000
    11  C    2.732978   2.732978   1.540000   2.148263   2.148263
    12  H    3.062243   2.514809   2.148263   3.024610   2.468846
    13  H    2.514809   3.062243   2.148263   2.468846   3.024610
    14  N    4.088455   4.088455   2.457987   2.690081   2.690081
    15  H    4.699872   4.699872   3.331921   3.606919   3.606919
    16  H    4.564588   4.240535   2.644813   2.983823   2.459648
    17  H    4.240535   4.564588   2.644813   2.459648   2.983823
    18  C    2.170916   3.554336   3.340812   3.372677   4.392650
    19  H    3.149319   4.312639   3.974477   4.025861   4.988807
    20  O    2.270925   3.729517   4.069183   4.136066   5.085197
    21  O    1.631080   2.975735   2.196772   2.114943   3.266124
                   11         12         13         14         15
    11  C    0.000000
    12  H    1.070000   0.000000
    13  H    1.070000   1.747303   0.000000
    14  N    1.470000   2.086720   2.086720   0.000000
    15  H    2.034920   2.370879   2.370879   1.000000   0.000000
    16  H    2.034920   2.370879   2.911082   1.000000   1.632993
    17  H    2.034920   2.911082   2.370879   1.000000   1.632993
    18  C    2.981054   3.472908   2.034863   4.055286   4.299826
    19  H    3.214522   3.648341   2.151686   4.053882   4.050475
    20  O    3.988638   4.329986   3.161737   5.204052   5.493698
    21  O    2.162546   2.901338   1.491034   3.214897   3.709269
                   16         17         18         19         20
    16  H    0.000000
    17  H    1.632993   0.000000
    18  C    4.891919   4.065539   0.000000
    19  H    4.981389   4.086745   1.070000   0.000000
    20  O    5.971432   5.241982   1.258400   2.018653   0.000000
    21  O    3.959606   3.144702   1.258400   2.018653   2.179613
                   21
    21  O    0.000000
 Stoichiometry    C5H13NO2
 Framework group  C1[X(C5H13NO2)]
 Deg. of freedom    57
 Full point group                 C1      NOp   1
 Largest Abelian subgroup         C1      NOp   1
 Largest concise Abelian subgroup C1      NOp   1
                         Standard orientation:                         
 ---------------------------------------------------------------------
 Center     Atomic      Atomic             Coordinates (Angstroms)
 Number     Number       Type             X           Y           Z
 ---------------------------------------------------------------------
      1          6           0        1.142727    2.519164   -0.180519
      2          1           0        0.489553    3.343341    0.016953
      3          1           0        1.238300    2.385180   -1.237787
      4          1           0        2.105379    2.717727    0.242299
      5          6           0        0.559760    1.240020    0.448401
      6          1           0        1.212935    0.415843    0.250928
      7          1           0        0.464188    1.374004    1.505668
      8          6           0       -0.825738    0.954238   -0.160141
      9          1           0       -0.730166    0.820253   -1.217408
     10          1           0       -1.478913    1.778415    0.037332
     11          6           0       -1.408706   -0.324906    0.468779
     12          1           0       -1.504278   -0.190922    1.526046
     13          1           0       -0.755531   -1.149083    0.271306
     14          7           0       -2.731227   -0.597698   -0.112102
     15          1           0       -3.109777   -1.428311    0.296288
     16          1           0       -3.341670    0.172560    0.072452
     17          1           0       -2.641907   -0.722917   -1.100202
     18          6           0        1.162930   -1.729025   -0.080607
     19          1           0        0.733032   -2.692834    0.095916
     20          8           0        2.381363   -1.529426    0.162603
     21          8           0        0.450088   -0.795112   -0.531422
 ---------------------------------------------------------------------
 Rotational constants (GHZ):      1.9862033      1.5312578      0.9285832
 Standard basis: 6-311+G(d) (5D, 7F)
 There are   215 symmetry adapted basis functions of A   symmetry.
 Integral buffers will be    131072 words long.
 Raffenetti 2 integral format.
 Two-electron integral symmetry is turned on.
   215 basis functions,   353 primitive gaussians,   223 cartesian basis functions
    33 alpha electrons       33 beta electrons
       nuclear repulsion energy       418.4994434563 Hartrees.
 NAtoms=   21 NActive=   21 NUniq=   21 SFac= 7.50D-01 NAtFMM=   80 NAOKFM=F Big=F
 One-electron integrals computed using PRISM.
 NBasis=   215 RedAO= T  NBF=   215
 NBsUse=   215 1.00D-06 NBFU=   215
 Harris functional with IExCor= 1009 diagonalized for initial guess.
 ExpMin= 4.38D-02 ExpMax= 8.59D+03 ExpMxC= 1.30D+03 IAcc=2 IRadAn=         0 AccDes= 0.00D+00
 HarFok:  IExCor= 1009 AccDes= 0.00D+00 IRadAn=         0 IDoV= 1
 ScaDFX=  1.000000  1.000000  1.000000  1.000000
 FoFCou: FMM=F IPFlag=           0 FMFlag=      100000 FMFlg1=           0
         NFxFlg=           0 DoJE=T BraDBF=F KetDBF=T FulRan=T
         Omega=  0.000000  0.000000  1.000000  0.000000  0.000000 ICntrl=     500 IOpCl=  0
         NMat0=    1 NMatS0=    1 NMatT0=    0 NMatD0=    1 NMtDS0=    0 NMtDT0=    0
         I1Cent=           4 NGrid=           0.
 Petite list used in FoFCou.
 Initial guess orbital symmetries:
       Occupied  (A) (A) (A) (A) (A) (A) (A) (A) (A) (A) (A) (A)
                 (A) (A) (A) (A) (A) (A) (A) (A) (A) (A) (A) (A)
                 (A) (A) (A) (A) (A) (A) (A) (A) (A)
       Virtual   (A) (A) (A) (A) (A) (A) (A) (A) (A) (A) (A) (A)
                 (A) (A) (A) (A) (A) (A) (A) (A) (A) (A) (A) (A)
                 (A) (A) (A) (A) (A) (A) (A) (A) (A) (A) (A) (A)
                 (A) (A) (A) (A) (A) (A) (A) (A) (A) (A) (A) (A)
                 (A) (A) (A) (A) (A) (A) (A) (A) (A) (A) (A) (A)
                 (A) (A) (A) (A) (A) (A) (A) (A) (A) (A) (A) (A)
                 (A) (A) (A) (A) (A) (A) (A) (A) (A) (A) (A) (A)
                 (A) (A) (A) (A) (A) (A) (A) (A) (A) (A) (A) (A)
                 (A) (A) (A) (A) (A) (A) (A) (A) (A) (A) (A) (A)
                 (A) (A) (A) (A) (A) (A) (A) (A) (A) (A) (A) (A)
                 (A) (A) (A) (A) (A) (A) (A) (A) (A) (A) (A) (A)
                 (A) (A) (A) (A) (A) (A) (A) (A) (A) (A) (A) (A)
                 (A) (A) (A) (A) (A) (A) (A) (A) (A) (A) (A) (A)
                 (A) (A) (A) (A) (A) (A) (A) (A) (A) (A) (A) (A)
                 (A) (A) (A) (A) (A) (A) (A) (A) (A) (A) (A) (A)
                 (A) (A)
 The electronic state of the initial guess is 1-A.
 Requested convergence on RMS density matrix=1.00D-08 within 128 cycles.
 Requested convergence on MAX density matrix=1.00D-06.
 Requested convergence on             energy=1.00D-06.
 No special actions if energy rises.
 SCF Done:  E(RM062X) =  -403.320312706     A.U. after   15 cycles
             Convg  =    0.9845D-08             -V/T =  2.0007

 **********************************************************************

            Population analysis using the SCF density.

 **********************************************************************

 Orbital symmetries:
       Occupied  (A) (A) (A) (A) (A) (A) (A) (A) (A) (A) (A) (A)
                 (A) (A) (A) (A) (A) (A) (A) (A) (A) (A) (A) (A)
                 (A) (A) (A) (A) (A) (A) (A) (A) (A)
       Virtual   (A) (A) (A) (A) (A) (A) (A) (A) (A) (A) (A) (A)
                 (A) (A) (A) (A) (A) (A) (A) (A) (A) (A) (A) (A)
                 (A) (A) (A) (A) (A) (A) (A) (A) (A) (A) (A) (A)
                 (A) (A) (A) (A) (A) (A) (A) (A) (A) (A) (A) (A)
                 (A) (A) (A) (A) (A) (A) (A) (A) (A) (A) (A) (A)
                 (A) (A) (A) (A) (A) (A) (A) (A) (A) (A) (A) (A)
                 (A) (A) (A) (A) (A) (A) (A) (A) (A) (A) (A) (A)
                 (A) (A) (A) (A) (A) (A) (A) (A) (A) (A) (A) (A)
                 (A) (A) (A) (A) (A) (A) (A) (A) (A) (A) (A) (A)
                 (A) (A) (A) (A) (A) (A) (A) (A) (A) (A) (A) (A)
                 (A) (A) (A) (A) (A) (A) (A) (A) (A) (A) (A) (A)
                 (A) (A) (A) (A) (A) (A) (A) (A) (A) (A) (A) (A)
                 (A) (A) (A) (A) (A) (A) (A) (A) (A) (A) (A) (A)
                 (A) (A) (A) (A) (A) (A) (A) (A) (A) (A) (A) (A)
                 (A) (A) (A) (A) (A) (A) (A) (A) (A) (A) (A) (A)
                 (A) (A)
 The electronic state is 1-A.
 Alpha  occ. eigenvalues --  -19.50939 -19.50831 -14.92155 -10.58271 -10.57363
 Alpha  occ. eigenvalues --  -10.53137 -10.48830 -10.48295  -1.18454  -1.12100
 Alpha  occ. eigenvalues --   -1.01005  -0.89764  -0.82718  -0.75639  -0.73650
 Alpha  occ. eigenvalues --   -0.71982  -0.65443  -0.62142  -0.60838  -0.56847
 Alpha  occ. eigenvalues --   -0.50570  -0.48242  -0.46143  -0.45209  -0.44177
 Alpha  occ. eigenvalues --   -0.42133  -0.41253  -0.38109  -0.37488  -0.36138
 Alpha  occ. eigenvalues --   -0.26752  -0.25628  -0.24902
 Alpha virt. eigenvalues --   -0.05347  -0.00315   0.00318   0.02876   0.04512
 Alpha virt. eigenvalues --    0.04661   0.05200   0.05985   0.07109   0.07699
 Alpha virt. eigenvalues --    0.08252   0.09072   0.10053   0.11083   0.11149
 Alpha virt. eigenvalues --    0.11782   0.12035   0.12596   0.14073   0.14780
 Alpha virt. eigenvalues --    0.15530   0.16298   0.17472   0.17766   0.19157
 Alpha virt. eigenvalues --    0.20198   0.21020   0.21577   0.22123   0.23471
 Alpha virt. eigenvalues --    0.24381   0.24882   0.25317   0.27142   0.27535
 Alpha virt. eigenvalues --    0.28919   0.29590   0.30572   0.30987   0.31692
 Alpha virt. eigenvalues --    0.32272   0.33019   0.34219   0.35395   0.36261
 Alpha virt. eigenvalues --    0.37006   0.40055   0.41636   0.42310   0.43630
 Alpha virt. eigenvalues --    0.46172   0.47364   0.47978   0.48618   0.49597
 Alpha virt. eigenvalues --    0.50813   0.53787   0.54903   0.55490   0.57349
 Alpha virt. eigenvalues --    0.58520   0.59747   0.64719   0.65819   0.66970
 Alpha virt. eigenvalues --    0.69240   0.70177   0.70788   0.71825   0.73659
 Alpha virt. eigenvalues --    0.75055   0.75229   0.76038   0.76869   0.79197
 Alpha virt. eigenvalues --    0.79974   0.80487   0.80703   0.82440   0.85393
 Alpha virt. eigenvalues --    0.86082   0.87919   0.89262   0.99393   1.04839
 Alpha virt. eigenvalues --    1.08262   1.09585   1.11994   1.14129   1.18425
 Alpha virt. eigenvalues --    1.23082   1.24945   1.26558   1.27806   1.32059
 Alpha virt. eigenvalues --    1.33115   1.39580   1.41573   1.42490   1.49549
 Alpha virt. eigenvalues --    1.58299   1.59777   1.61025   1.61535   1.65496
 Alpha virt. eigenvalues --    1.66287   1.66758   1.68508   1.69673   1.72158
 Alpha virt. eigenvalues --    1.74150   1.77058   1.82329   1.85776   1.87320
 Alpha virt. eigenvalues --    1.89664   1.92024   1.96175   1.97891   1.99463
 Alpha virt. eigenvalues --    2.01916   2.07439   2.09213   2.10793   2.17965
 Alpha virt. eigenvalues --    2.28685   2.34251   2.50052   2.57691   2.59977
 Alpha virt. eigenvalues --    2.60592   2.61505   2.63145   2.66166   2.67190
 Alpha virt. eigenvalues --    2.69187   2.70642   2.76718   2.78601   2.82074
 Alpha virt. eigenvalues --    2.84149   2.99419   3.01406   3.03887   3.07323
 Alpha virt. eigenvalues --    3.09656   3.14935   3.17935   3.20896   3.27238
 Alpha virt. eigenvalues --    3.29352   3.33150   3.34782   3.37683   3.39673
 Alpha virt. eigenvalues --    3.42366   3.44392   3.48368   3.48674   3.79389
 Alpha virt. eigenvalues --    3.81143   3.90877   3.97072   4.03368   4.07527
 Alpha virt. eigenvalues --    4.11998   4.24754   4.52078   5.25206   5.30635
 Alpha virt. eigenvalues --    5.33752   5.41024   5.72604   6.05567  23.61281
 Alpha virt. eigenvalues --   23.72550  23.81657  23.87027  23.97349  35.34902
 Alpha virt. eigenvalues --   50.11108  50.18465
          Condensed to atoms (all electrons):
              1          2          3          4          5          6
     1  C    6.088918   0.361671   0.383956   0.403163  -0.313375  -0.037934
     2  H    0.361671   0.499733  -0.044101  -0.028223   0.065127   0.008481
     3  H    0.383956  -0.044101   0.459771  -0.020229  -0.037647  -0.010370
     4  H    0.403163  -0.028223  -0.020229   0.427276  -0.104227  -0.006695
     5  C   -0.313375   0.065127  -0.037647  -0.104227   7.055308   0.493206
     6  H   -0.037934   0.008481  -0.010370  -0.006695   0.493206   0.369963
     7  H   -0.019547  -0.012327   0.008404  -0.003557   0.291290  -0.027181
     8  C    0.279561  -0.091334  -0.007358   0.059883  -1.108101  -0.086955
     9  H    0.006979   0.000122   0.001621  -0.000234  -0.103486   0.001636
    10  H   -0.003355   0.001589   0.000565  -0.000156   0.023382   0.000146
    11  C   -0.196903   0.009378   0.002313   0.002534   0.562692  -0.007854
    12  H    0.006505   0.000136  -0.000116  -0.000048  -0.016908   0.002304
    13  H    0.015790  -0.000065   0.000201  -0.000060  -0.035718   0.004552
    14  N    0.008901  -0.000287  -0.000459   0.000260  -0.073176  -0.001256
    15  H   -0.000814  -0.000001   0.000006   0.000000   0.006185  -0.000064
    16  H    0.000614  -0.000022   0.000040  -0.000003   0.007308   0.000035
    17  H   -0.001303   0.000040  -0.000041  -0.000003   0.002119  -0.000096
    18  C    0.038534   0.000104  -0.001269  -0.001350  -0.039777   0.048423
    19  H    0.006766  -0.000008   0.000024  -0.000007  -0.034528   0.005291
    20  O    0.031083  -0.000144  -0.000114  -0.000067  -0.058306   0.051024
    21  O   -0.055651  -0.002613   0.006385   0.001579  -0.212075  -0.186076
              7          8          9         10         11         12
     1  C   -0.019547   0.279561   0.006979  -0.003355  -0.196903   0.006505
     2  H   -0.012327  -0.091334   0.000122   0.001589   0.009378   0.000136
     3  H    0.008404  -0.007358   0.001621   0.000565   0.002313  -0.000116
     4  H   -0.003557   0.059883  -0.000234  -0.000156   0.002534  -0.000048
     5  C    0.291290  -1.108101  -0.103486   0.023382   0.562692  -0.016908
     6  H   -0.027181  -0.086955   0.001636   0.000146  -0.007854   0.002304
     7  H    0.515190   0.028484   0.004509  -0.004689  -0.008775  -0.000005
     8  C    0.028484   7.802935   0.567698   0.321547  -1.083951   0.023786
     9  H    0.004509   0.567698   0.393979  -0.047381  -0.077838   0.003502
    10  H   -0.004689   0.321547  -0.047381   0.492255  -0.028666  -0.005279
    11  C   -0.008775  -1.083951  -0.077838  -0.028666   7.715279   0.265078
    12  H   -0.000005   0.023786   0.003502  -0.005279   0.265078   0.433280
    13  H    0.001927  -0.034627  -0.005461   0.003287   0.484408  -0.038530
    14  N    0.000460  -0.051746   0.009906  -0.018675  -0.311988   0.028707
    15  H    0.000053  -0.000679  -0.000363   0.000212   0.022092  -0.008255
    16  H    0.000082  -0.005010  -0.003013   0.009752   0.014954  -0.014567
    17  H   -0.000160  -0.006169   0.001791  -0.000826  -0.028279   0.003859
    18  C   -0.002115   0.025394  -0.002219   0.003804  -0.112596   0.011115
    19  H    0.000556   0.026687  -0.000098   0.000089  -0.011145  -0.000320
    20  O    0.000300   0.018702   0.000510  -0.000019  -0.009498   0.000880
    21  O    0.004622  -0.261183  -0.052152   0.026742  -0.436503   0.022592
             13         14         15         16         17         18
     1  C    0.015790   0.008901  -0.000814   0.000614  -0.001303   0.038534
     2  H   -0.000065  -0.000287  -0.000001  -0.000022   0.000040   0.000104
     3  H    0.000201  -0.000459   0.000006   0.000040  -0.000041  -0.001269
     4  H   -0.000060   0.000260   0.000000  -0.000003  -0.000003  -0.001350
     5  C   -0.035718  -0.073176   0.006185   0.007308   0.002119  -0.039777
     6  H    0.004552  -0.001256  -0.000064   0.000035  -0.000096   0.048423
     7  H    0.001927   0.000460   0.000053   0.000082  -0.000160  -0.002115
     8  C   -0.034627  -0.051746  -0.000679  -0.005010  -0.006169   0.025394
     9  H   -0.005461   0.009906  -0.000363  -0.003013   0.001791  -0.002219
    10  H    0.003287  -0.018675   0.000212   0.009752  -0.000826   0.003804
    11  C    0.484408  -0.311988   0.022092   0.014954  -0.028279  -0.112596
    12  H   -0.038530   0.028707  -0.008255  -0.014567   0.003859   0.011115
    13  H    0.388272  -0.058164   0.002832   0.008213  -0.011893   0.053954
    14  N   -0.058164   7.163775   0.247233   0.267024   0.329506  -0.000026
    15  H    0.002832   0.247233   0.323165  -0.006761  -0.011775  -0.002808
    16  H    0.008213   0.267024  -0.006761   0.325134  -0.036405   0.000377
    17  H   -0.011893   0.329506  -0.011775  -0.036405   0.284525  -0.001530
    18  C    0.053954  -0.000026  -0.002808   0.000377  -0.001530   5.259996
    19  H    0.025364  -0.005811   0.000366   0.000065   0.000018   0.476664
    20  O    0.003227   0.001689  -0.000069  -0.000024   0.000000   0.467641
    21  O   -0.135453   0.108014  -0.005570  -0.007778   0.014830  -0.155107
             19         20         21
     1  C    0.006766   0.031083  -0.055651
     2  H   -0.000008  -0.000144  -0.002613
     3  H    0.000024  -0.000114   0.006385
     4  H   -0.000007  -0.000067   0.001579
     5  C   -0.034528  -0.058306  -0.212075
     6  H    0.005291   0.051024  -0.186076
     7  H    0.000556   0.000300   0.004622
     8  C    0.026687   0.018702  -0.261183
     9  H   -0.000098   0.000510  -0.052152
    10  H    0.000089  -0.000019   0.026742
    11  C   -0.011145  -0.009498  -0.436503
    12  H   -0.000320   0.000880   0.022592
    13  H    0.025364   0.003227  -0.135453
    14  N   -0.005811   0.001689   0.108014
    15  H    0.000366  -0.000069  -0.005570
    16  H    0.000065  -0.000024  -0.007778
    17  H    0.000018   0.000000   0.014830
    18  C    0.476664   0.467641  -0.155107
    19  H    0.669944  -0.075138  -0.211109
    20  O   -0.075138   8.203686  -0.191374
    21  O   -0.211109  -0.191374   9.979904
 Mulliken atomic charges:
              1
     1  C   -1.003558
     2  H    0.232742
     3  H    0.258419
     4  H    0.270161
     5  C   -0.369292
     6  H    0.379418
     7  H    0.222478
     8  C   -0.417562
     9  H    0.299993
    10  H    0.225679
    11  C   -0.764730
    12  H    0.282282
    13  H    0.327946
    14  N   -0.643887
    15  H    0.435019
    16  H    0.439987
    17  H    0.461792
    18  C   -0.067208
    19  H    0.126331
    20  O   -0.443988
    21  O   -0.252024
 Sum of Mulliken atomic charges =   0.00000
 Mulliken charges with hydrogens summed into heavy atoms:
              1
     1  C   -0.242236
     5  C    0.232604
     8  C    0.108110
    11  C   -0.154501
    14  N    0.692910
    18  C    0.059124
    20  O   -0.443988
    21  O   -0.252024
 Sum of Mulliken charges with hydrogens summed into heavy atoms =   0.00000
 Electronic spatial extent (au):  <R**2>=           1281.0708
 Charge=              0.0000 electrons
 Dipole moment (field-independent basis, Debye):
    X=            -14.5690    Y=              0.4016    Z=              0.1967  Tot=             14.5759
 Quadrupole moment (field-independent basis, Debye-Ang):
   XX=            -39.6812   YY=            -54.6041   ZZ=            -51.5069
   XY=             14.3551   XZ=              0.3906   YZ=              0.3585
 Traceless Quadrupole moment (field-independent basis, Debye-Ang):
   XX=              8.9162   YY=             -6.0066   ZZ=             -2.9095
   XY=             14.3551   XZ=              0.3906   YZ=              0.3585
 Octapole moment (field-independent basis, Debye-Ang**2):
  XXX=           -133.8808  YYY=            -19.7026  ZZZ=             -3.4394  XYY=            -26.5285
  XXY=              3.1744  XXZ=             -6.6489  XZZ=             -9.3673  YZZ=             -3.3125
  YYZ=             -0.6300  XYZ=              2.0293
 Hexadecapole moment (field-independent basis, Debye-Ang**3):
 XXXX=           -655.9379 YYYY=           -769.0478 ZZZZ=           -117.1314 XXXY=            119.4721
 XXXZ=             -2.5538 YYYX=             27.2211 YYYZ=              9.3095 ZZZX=              5.7481
 ZZZY=              1.4154 XXYY=           -270.4515 XXZZ=           -146.6036 YYZZ=           -147.8187
 XXYZ=             10.6162 YYXZ=             -4.9262 ZZXY=              6.9943
 N-N= 4.184994434563D+02 E-N=-1.781580439535D+03  KE= 4.030314463280D+02
 Calling FoFJK, ICntrl=      2127 FMM=F ISym2X=0 I1Cent= 0 IOpClX= 0 NMat=1 NMatS=1 NMatT=0.
 ***** Axes restored to original set *****
 -------------------------------------------------------------------
 Center     Atomic                   Forces (Hartrees/Bohr)
 Number     Number              X              Y              Z
 -------------------------------------------------------------------
      1        6           0.007942437    0.012769259    0.022842157
      2        1           0.001590823   -0.018233745   -0.000925517
      3        1           0.004541780    0.002988866   -0.014742155
      4        1          -0.014241630   -0.000520575   -0.003441837
      5        6          -0.006835077   -0.041909329   -0.015834208
      6        1          -0.016780629   -0.013338540    0.000622423
      7        1          -0.007638175   -0.007480706    0.017293218
      8        6          -0.011459812    0.011399023    0.025289177
      9        1           0.006228472    0.001251687   -0.012748332
     10        1           0.005282047   -0.021258904    0.005604218
     11        6          -0.006233282   -0.040403425    0.017228928
     12        1           0.000914409   -0.009279315    0.018820345
     13        1           0.017955292   -0.002636431    0.012065156
     14        7          -0.002496021   -0.003702034    0.010913384
     15        1           0.011345612    0.009786174    0.011270931
     16        1           0.011335406   -0.017033263    0.002388244
     17        1           0.008037285    0.005220630   -0.017333276
     18        6          -0.072332248   -0.019385801   -0.056901613
     19        1           0.012874009    0.019202106    0.018357627
     20        8           0.025752115    0.016891704    0.020895609
     21        8           0.024217186    0.115672619   -0.061664478
 -------------------------------------------------------------------
 Cartesian Forces:  Max     0.115672619 RMS     0.024928553

 GradGradGradGradGradGradGradGradGradGradGradGradGradGradGradGradGradGrad
 Berny optimization.
 Internal  Forces:  Max     0.070013200 RMS     0.018565307
 Search for a local minimum.
 Step number   1 out of a maximum of  119
 All quantities printed in internal units (Hartrees-Bohrs-Radians)
 Mixed Optimization -- RFO/linear search
 Second derivative matrix not updated -- first step.
     Eigenvalues ---    0.00237   0.00329   0.00417   0.00766   0.01221
     Eigenvalues ---    0.03523   0.03565   0.03565   0.03760   0.03860
     Eigenvalues ---    0.04513   0.04885   0.05051   0.05720   0.05720
     Eigenvalues ---    0.06065   0.06065   0.06424   0.06741   0.07174
     Eigenvalues ---    0.07655   0.08370   0.09702   0.10760   0.11547
     Eigenvalues ---    0.13056   0.13704   0.16000   0.16000   0.16000
     Eigenvalues ---    0.16000   0.16000   0.16000   0.16000   0.16024
     Eigenvalues ---    0.16554   0.18713   0.22000   0.26538   0.27492
     Eigenvalues ---    0.28519   0.34670   0.35740   0.37230   0.37230
     Eigenvalues ---    0.37230   0.37230   0.37230   0.37230   0.37230
     Eigenvalues ---    0.37230   0.37230   0.47688   0.47688   0.47688
     Eigenvalues ---    0.80209   0.802091000.000001000.000001000.00000
     Eigenvalues --- 1000.000001000.000001000.000001000.000001000.00000
     Eigenvalues --- 1000.000001000.000001000.000001000.000001000.00000
     Eigenvalues --- 1000.000001000.000001000.000001000.000001000.00000
     Eigenvalues --- 1000.000001000.000001000.000001000.000001000.00000
     Eigenvalues --- 1000.000001000.000001000.000001000.000001000.00000
     Eigenvalues --- 1000.000001000.000001000.000001000.000001000.00000
     Eigenvalues --- 1000.000001000.000001000.000001000.000001000.00000
     Eigenvalues --- 1000.000001000.000001000.000001000.000001000.00000
     Eigenvalues --- 1000.000001000.000001000.000001000.000001000.00000
     Eigenvalues --- 1000.000001000.000001000.000001000.00000
 RFO step:  Lambda=-1.23502402D-01 EMin= 2.36824144D-03
 Linear search not attempted -- first point.
 Maximum step size (   0.300) exceeded in Quadratic search.
    -- Step size scaled by   0.437
 Iteration  1 RMS(Cart)=  0.05573501 RMS(Int)=  0.00153340
 Iteration  2 RMS(Cart)=  0.00167522 RMS(Int)=  0.00081108
 Iteration  3 RMS(Cart)=  0.00000671 RMS(Int)=  0.00081107
 Iteration  4 RMS(Cart)=  0.00000002 RMS(Int)=  0.00081107
 Variable       Old X    -DE/DX   Delta X   Delta X   Delta X     New X
                                 (Linear)    (Quad)   (Total)
    R1        2.02201   0.01738   0.00000   0.01534   0.01534   2.03734
    R2        2.02201   0.01551   0.00000   0.01369   0.01369   2.03570
    R3        2.02201   0.01434   0.00000   0.01265   0.01265   2.03466
    R4        2.91018  -0.00079   0.00000  -0.00085  -0.00085   2.90933
    R5        2.02201   0.05701   0.00000   0.04935   0.04941   2.07142
    R6        2.02201   0.02017   0.00000   0.01780   0.01780   2.03981
    R7        2.91018   0.01158   0.00000   0.00969   0.00815   2.91833
    R8        3.08229   0.05936   0.00000   0.12822   0.12978   3.21207
    R9        2.02201   0.01406   0.00000   0.01241   0.01241   2.03441
   R10        2.02201   0.02261   0.00000   0.01995   0.01995   2.04195
   R11        2.91018   0.00608   0.00000   0.00412   0.00249   2.91267
   R12        2.02201   0.01842   0.00000   0.01625   0.01625   2.03826
   R13        2.02201   0.07001   0.00000   0.06274   0.06265   2.08466
   R14        2.77790   0.02903   0.00000   0.02641   0.02641   2.80431
   R15        2.81765   0.06963   0.00000   0.13275   0.13420   2.95185
   R16        1.88973   0.01790   0.00000   0.01305   0.01305   1.90277
   R17        1.88973   0.01933   0.00000   0.01409   0.01409   1.90381
   R18        1.88973   0.01983   0.00000   0.01445   0.01445   1.90418
   R19        2.02201   0.02929   0.00000   0.02584   0.02584   2.04785
   R20        2.37803  -0.02743   0.00000  -0.01297  -0.01297   2.36507
   R21        2.37803   0.02510   0.00000   0.01186   0.01186   2.38989
    A1        1.91063  -0.00370   0.00000  -0.00532  -0.00534   1.90530
    A2        1.91063  -0.00439   0.00000  -0.00627  -0.00631   1.90432
    A3        1.91063   0.00774   0.00000   0.01240   0.01237   1.92300
    A4        1.91063  -0.00292   0.00000  -0.00541  -0.00541   1.90522
    A5        1.91063   0.00081   0.00000   0.00100   0.00099   1.91162
    A6        1.91063   0.00247   0.00000   0.00361   0.00359   1.91422
    A7        1.91063   0.00106   0.00000   0.00127   0.00215   1.91279
    A8        1.91063  -0.00129   0.00000  -0.00249  -0.00271   1.90792
    A9        1.91063   0.00447   0.00000   0.00155   0.00085   1.91148
   A10        1.91063  -0.00014   0.00000  -0.00283  -0.00291   1.90772
   A11        1.91063  -0.00019   0.00000   0.00904   0.00808   1.91872
   A12        1.91063  -0.00392   0.00000  -0.00652  -0.00551   1.90513
   A13        1.95506   0.03790   0.00000   0.06003   0.06086   2.01593
   A14        1.91063  -0.00538   0.00000  -0.00995  -0.01026   1.90037
   A15        1.91063   0.00017   0.00000  -0.00067  -0.00010   1.91054
   A16        1.91063   0.00898   0.00000   0.02025   0.01976   1.93039
   A17        1.91063   0.00094   0.00000  -0.00009  -0.00020   1.91043
   A18        1.91063  -0.00239   0.00000  -0.00593  -0.00615   1.90449
   A19        1.91063  -0.00233   0.00000  -0.00360  -0.00313   1.90751
   A20        1.91063  -0.00020   0.00000   0.00041   0.00136   1.91199
   A21        1.91063  -0.00364   0.00000   0.00482   0.00379   1.91443
   A22        1.91063   0.00311   0.00000  -0.00178  -0.00238   1.90825
   A23        1.91063   0.00191   0.00000   0.00358   0.00343   1.91407
   A24        1.91063  -0.00419   0.00000  -0.00794  -0.00816   1.90248
   A25        1.91063   0.00302   0.00000   0.00089   0.00191   1.91254
   A26        1.99335   0.03885   0.00000   0.06519   0.06600   2.05935
   A27        1.91063   0.00644   0.00000   0.01027   0.01022   1.92086
   A28        1.91063   0.00848   0.00000   0.01349   0.01345   1.92408
   A29        1.91063  -0.00340   0.00000  -0.00598  -0.00596   1.90467
   A30        1.91063  -0.00523   0.00000  -0.00658  -0.00669   1.90394
   A31        1.91063  -0.00275   0.00000  -0.00507  -0.00505   1.90558
   A32        1.91063  -0.00354   0.00000  -0.00613  -0.00611   1.90453
   A33        2.09440  -0.02019   0.00000  -0.02587  -0.02591   2.06849
   A34        2.09440  -0.01902   0.00000  -0.02406  -0.02410   2.07029
   A35        2.09440   0.03921   0.00000   0.04994   0.04990   2.14429
   A36        1.87150  -0.04573   0.00000  -0.07681  -0.07744   1.79405
   A37        1.68527   0.02207   0.00000   0.03564   0.03625   1.72152
   A38        1.65990   0.03643   0.00000   0.06187   0.06189   1.72179
    D1        3.14159   0.00096   0.00000   0.00507   0.00462  -3.13697
    D2       -1.04720   0.00066   0.00000   0.00085   0.00071  -1.04649
    D3        1.04720  -0.00219   0.00000  -0.00772  -0.00716   1.04004
    D4        1.04720   0.00026   0.00000   0.00337   0.00293   1.05013
    D5        3.14159  -0.00004   0.00000  -0.00084  -0.00098   3.14061
    D6       -1.04720  -0.00289   0.00000  -0.00941  -0.00885  -1.05605
    D7       -1.04720   0.00184   0.00000   0.00718   0.00675  -1.04044
    D8        1.04720   0.00153   0.00000   0.00296   0.00284   1.05004
    D9        3.14159  -0.00132   0.00000  -0.00561  -0.00502   3.13657
   D10       -2.14243   0.00268   0.00000   0.00157   0.00012  -2.14231
   D11        2.04636   0.00369   0.00000   0.00558   0.00391   2.05026
   D12       -0.04804   0.00869   0.00000   0.00977   0.00750  -0.04053
   D13        1.04720   0.00050   0.00000  -0.00005   0.00001   1.04721
   D14       -1.04720   0.00254   0.00000   0.00656   0.00654  -1.04065
   D15        3.14159  -0.00022   0.00000  -0.00101  -0.00183   3.13977
   D16       -1.04720  -0.00342   0.00000  -0.00808  -0.00816  -1.05536
   D17        3.14159  -0.00138   0.00000  -0.00147  -0.00163   3.13996
   D18        1.04720  -0.00414   0.00000  -0.00904  -0.01000   1.03720
   D19       -3.14159  -0.00074   0.00000  -0.00615  -0.00614   3.13545
   D20        1.04720   0.00130   0.00000   0.00046   0.00039   1.04759
   D21       -1.04720  -0.00146   0.00000  -0.00711  -0.00798  -1.05518
   D22       -0.94156   0.03866   0.00000   0.08327   0.08008  -0.86148
   D23       -2.64215   0.00002   0.00000   0.01810   0.01820  -2.62395
   D24        1.04720   0.00583   0.00000   0.01678   0.01768   1.06487
   D25       -1.04720   0.00585   0.00000   0.00919   0.01028  -1.03691
   D26        3.14159   0.00248   0.00000   0.00623   0.00708  -3.13451
   D27        3.14159   0.00328   0.00000   0.01336   0.01337  -3.12823
   D28        1.04720   0.00329   0.00000   0.00577   0.00597   1.05317
   D29       -1.04720  -0.00008   0.00000   0.00281   0.00277  -1.04443
   D30       -1.04720   0.00154   0.00000   0.00741   0.00750  -1.03970
   D31        3.14159   0.00156   0.00000  -0.00018   0.00011  -3.14148
   D32        1.04720  -0.00181   0.00000  -0.00314  -0.00310   1.04410
   D33       -0.01053  -0.00620   0.00000  -0.00528  -0.00315  -0.01368
   D34       -2.10493  -0.00489   0.00000  -0.01093  -0.00928  -2.11421
   D35        2.08386  -0.00277   0.00000  -0.00395  -0.00256   2.08131
   D36        3.14159  -0.00102   0.00000   0.00135   0.00074  -3.14085
   D37       -1.04720   0.00172   0.00000   0.00784   0.00730  -1.03989
   D38        1.04720   0.00049   0.00000   0.00493   0.00436   1.05155
   D39       -1.04720  -0.00192   0.00000  -0.00409  -0.00399  -1.05119
   D40        1.04720   0.00081   0.00000   0.00240   0.00257   1.04977
   D41        3.14159  -0.00042   0.00000  -0.00051  -0.00038   3.14122
   D42        1.04720  -0.00031   0.00000  -0.00402  -0.00362   1.04358
   D43        3.14159   0.00242   0.00000   0.00248   0.00295  -3.13865
   D44       -1.04720   0.00120   0.00000  -0.00044   0.00000  -1.04720
   D45        0.96456  -0.03793   0.00000  -0.08269  -0.07932   0.88524
   D46        2.68367  -0.00896   0.00000  -0.03532  -0.03617   2.64750
   D47        2.56319  -0.02215   0.00000  -0.04058  -0.03982   2.52338
   D48        0.67763   0.01591   0.00000   0.02342   0.02266   0.70028
   D49       -0.57840  -0.01609   0.00000  -0.02392  -0.02315  -0.60155
   D50       -2.46397   0.02197   0.00000   0.04008   0.03932  -2.42465
         Item               Value     Threshold  Converged?
 Maximum Force            0.070013     0.000450     NO 
 RMS     Force            0.018565     0.000300     NO 
 Maximum Displacement     0.266384     0.001800     NO 
 RMS     Displacement     0.056501     0.001200     NO 
 Predicted change in Energy=-4.763322D-02
 GradGradGradGradGradGradGradGradGradGradGradGradGradGradGradGradGradGrad

                          Input orientation:                          
 ---------------------------------------------------------------------
 Center     Atomic      Atomic             Coordinates (Angstroms)
 Number     Number       Type             X           Y           Z
 ---------------------------------------------------------------------
      1          6           0       -2.101561   -0.866614    0.110750
      2          1           0       -1.845002   -1.884713    0.355673
      3          1           0       -1.653477   -0.606395   -0.833688
      4          1           0       -3.171877   -0.782695    0.029163
      5          6           0       -1.588574    0.088107    1.204170
      6          1           0       -1.858488    1.119186    0.948112
      7          1           0       -2.040318   -0.174981    2.148553
      8          6           0       -0.054223   -0.040445    1.323107
      9          1           0        0.391322    0.216856    0.377444
     10          1           0        0.203199   -1.058677    1.577153
     11          6           0        0.486835    0.908121    2.410828
     12          1           0        0.054876    0.647691    3.364224
     13          1           0        0.227416    1.950071    2.157868
     14          7           0        1.961918    0.769151    2.494498
     15          1           0        2.327078    1.384272    3.203117
     16          1           0        2.210203   -0.180227    2.722536
     17          1           0        2.367456    1.011705    1.604521
     18          6           0       -1.165699    3.264525    1.175448
     19          1           0       -0.630619    4.004932    1.758407
     20          8           0       -2.363080    3.484116    0.884918
     21          8           0       -0.559064    2.208901    0.833309
 ---------------------------------------------------------------------
                    Distance matrix (angstroms):
                    1          2          3          4          5
     1  C    0.000000
     2  H    1.078116   0.000000
     3  H    1.077244   1.756519   0.000000
     4  H    1.076696   1.755463   1.755314   0.000000
     5  C    1.539551   2.162804   2.153929   2.155409   0.000000
     6  H    2.168793   3.061792   2.488869   2.487289   1.096149
     7  H    2.152847   2.485106   3.038013   2.478216   1.079420
     8  C    2.518721   2.746660   2.744026   3.456152   1.544314
     9  H    2.731208   3.068910   2.515111   3.717093   2.149428
    10  H    2.738456   2.523782   3.076354   3.723382   2.159786
    11  C    3.890995   4.178642   4.171520   4.681598   2.536882
    12  H    4.186698   4.367378   4.702518   4.855983   2.771263
    13  H    4.189098   4.716820   4.361501   4.853307   2.770247
    14  N    4.986968   5.109815   5.102944   5.902707   3.838588
    15  H    5.851672   6.016681   6.008608   6.708818   4.583466
    16  H    5.087618   4.995197   5.268432   6.048471   4.099773
    17  H    5.072628   5.262477   4.973029   6.032067   4.082094
    18  C    4.367577   5.258149   4.388460   4.660333   3.204571
    19  H    5.348869   6.174974   5.387906   5.689432   4.070180
    20  O    4.426803   5.419671   4.493264   4.426301   3.497807
    21  O    3.515705   4.317342   3.450002   4.052541   2.386460
                    6          7          8          9         10
     6  H    0.000000
     7  H    1.774538   0.000000
     8  C    2.177324   2.155003   0.000000
     9  H    2.490282   3.033684   1.076565   0.000000
    10  H    3.064201   2.478061   1.080556   1.761157   0.000000
    11  C    2.772116   2.761957   1.541317   2.149796   2.154938
    12  H    3.117831   2.558220   2.156756   3.036391   2.475341
    13  H    2.550466   3.107821   2.176764   2.490143   3.064373
    14  N    4.136344   4.126616   2.468285   2.693274   2.697327
    15  H    4.761752   4.755789   3.351843   3.618624   3.622516
    16  H    4.625073   4.289104   2.665627   2.994238   2.472174
    17  H    4.277970   4.597029   2.655324   2.458173   2.995203
    18  C    2.265859   3.679958   3.489987   3.514173   4.552507
    19  H    3.239100   4.428446   4.109354   4.159440   5.135001
    20  O    2.418988   3.884577   4.236197   4.303399   5.263263
    21  O    1.699754   3.099496   2.356761   2.253727   3.436773
                   11         12         13         14         15
    11  C    0.000000
    12  H    1.078600   0.000000
    13  H    1.103153   1.783609   0.000000
    14  N    1.483975   2.099520   2.125180   0.000000
    15  H    2.059353   2.394036   2.412728   1.006904   0.000000
    16  H    2.061956   2.396382   2.964535   1.007455   1.640815
    17  H    2.048803   2.928667   2.401353   1.007648   1.641933
    18  C    3.132039   3.623309   2.152604   4.212929   4.454917
    19  H    3.356276   3.784127   2.262354   4.211099   4.207496
    20  O    4.133542   4.476470   3.268694   5.354194   5.637462
    21  O    2.296627   3.036417   1.562049   3.344814   3.824372
                   16         17         18         19         20
    16  H    0.000000
    17  H    1.641764   0.000000
    18  C    5.065226   4.212183   0.000000
    19  H    5.149308   4.239286   1.083676   0.000000
    20  O    6.141593   5.385965   1.251539   2.008893   0.000000
    21  O    4.116545   3.254622   1.264677   2.021547   2.209822
                   21
    21  O    0.000000
 Stoichiometry    C5H13NO2
 Framework group  C1[X(C5H13NO2)]
 Deg. of freedom    57
 Full point group                 C1      NOp   1
 Largest Abelian subgroup         C1      NOp   1
 Largest concise Abelian subgroup C1      NOp   1
                         Standard orientation:                         
 ---------------------------------------------------------------------
 Center     Atomic      Atomic             Coordinates (Angstroms)
 Number     Number       Type             X           Y           Z
 ---------------------------------------------------------------------
      1          6           0        0.585493    2.735767   -0.190960
      2          1           0       -0.218725    3.426351    0.005662
      3          1           0        0.699800    2.619958   -1.255844
      4          1           0        1.498177    3.130897    0.221540
      5          6           0        0.278500    1.367932    0.445434
      6          1           0        1.103737    0.675184    0.243876
      7          1           0        0.165637    1.487728    1.512232
      8          6           0       -1.034757    0.807950   -0.143362
      9          1           0       -0.919499    0.696068   -1.207876
     10          1           0       -1.842954    1.495470    0.060927
     11          6           0       -1.364913   -0.564436    0.475679
     12          1           0       -1.495175   -0.457873    1.541068
     13          1           0       -0.543515   -1.271788    0.270971
     14          7           0       -2.624367   -1.080123   -0.115952
     15          1           0       -2.850858   -1.976989    0.281776
     16          1           0       -3.381285   -0.439775    0.062924
     17          1           0       -2.504868   -1.180079   -1.111483
     18          6           0        1.565498   -1.519049   -0.082063
     19          1           0        1.313451   -2.554527    0.114435
     20          8           0        2.720825   -1.123085    0.191396
     21          8           0        0.675140   -0.759259   -0.561010
 ---------------------------------------------------------------------
 Rotational constants (GHZ):      1.9095222      1.4351964      0.8790577
 Standard basis: 6-311+G(d) (5D, 7F)
 There are   215 symmetry adapted basis functions of A   symmetry.
 Integral buffers will be    131072 words long.
 Raffenetti 2 integral format.
 Two-electron integral symmetry is turned on.
   215 basis functions,   353 primitive gaussians,   223 cartesian basis functions
    33 alpha electrons       33 beta electrons
       nuclear repulsion energy       410.1893591097 Hartrees.
 NAtoms=   21 NActive=   21 NUniq=   21 SFac= 7.50D-01 NAtFMM=   80 NAOKFM=F Big=F
 One-electron integrals computed using PRISM.
 NBasis=   215 RedAO= T  NBF=   215
 NBsUse=   215 1.00D-06 NBFU=   215
 Initial guess read from the read-write file.
 B after Tr=     0.000000    0.000000    0.000000
         Rot=    1.000000    0.000000    0.000000    0.000000 Ang=   0.00 deg.
 Initial guess orbital symmetries:
       Occupied  (A) (A) (A) (A) (A) (A) (A) (A) (A) (A) (A) (A)
                 (A) (A) (A) (A) (A) (A) (A) (A) (A) (A) (A) (A)
                 (A) (A) (A) (A) (A) (A) (A) (A) (A)
       Virtual   (A) (A) (A) (A) (A) (A) (A) (A) (A) (A) (A) (A)
                 (A) (A) (A) (A) (A) (A) (A) (A) (A) (A) (A) (A)
                 (A) (A) (A) (A) (A) (A) (A) (A) (A) (A) (A) (A)
                 (A) (A) (A) (A) (A) (A) (A) (A) (A) (A) (A) (A)
                 (A) (A) (A) (A) (A) (A) (A) (A) (A) (A) (A) (A)
                 (A) (A) (A) (A) (A) (A) (A) (A) (A) (A) (A) (A)
                 (A) (A) (A) (A) (A) (A) (A) (A) (A) (A) (A) (A)
                 (A) (A) (A) (A) (A) (A) (A) (A) (A) (A) (A) (A)
                 (A) (A) (A) (A) (A) (A) (A) (A) (A) (A) (A) (A)
                 (A) (A) (A) (A) (A) (A) (A) (A) (A) (A) (A) (A)
                 (A) (A) (A) (A) (A) (A) (A) (A) (A) (A) (A) (A)
                 (A) (A) (A) (A) (A) (A) (A) (A) (A) (A) (A) (A)
                 (A) (A) (A) (A) (A) (A) (A) (A) (A) (A) (A) (A)
                 (A) (A) (A) (A) (A) (A) (A) (A) (A) (A) (A) (A)
                 (A) (A) (A) (A) (A) (A) (A) (A) (A) (A) (A) (A)
                 (A) (A)
 Harris functional with IExCor= 1009 diagonalized for initial guess.
 ExpMin= 4.38D-02 ExpMax= 8.59D+03 ExpMxC= 1.30D+03 IAcc=2 IRadAn=         0 AccDes= 0.00D+00
 HarFok:  IExCor= 1009 AccDes= 0.00D+00 IRadAn=         0 IDoV= 1
 ScaDFX=  1.000000  1.000000  1.000000  1.000000
 FoFCou: FMM=F IPFlag=           0 FMFlag=      100000 FMFlg1=           0
         NFxFlg=           0 DoJE=T BraDBF=F KetDBF=T FulRan=T
         Omega=  0.000000  0.000000  1.000000  0.000000  0.000000 ICntrl=     500 IOpCl=  0
         NMat0=    1 NMatS0=    1 NMatT0=    0 NMatD0=    1 NMtDS0=    0 NMtDT0=    0
         I1Cent=           4 NGrid=           0.
 Petite list used in FoFCou.
 Requested convergence on RMS density matrix=1.00D-08 within 128 cycles.
 Requested convergence on MAX density matrix=1.00D-06.
 Requested convergence on             energy=1.00D-06.
 No special actions if energy rises.
 SCF Done:  E(RM062X) =  -403.363367129     A.U. after   14 cycles
             Convg  =    0.6967D-08             -V/T =  2.0020
 Calling FoFJK, ICntrl=      2127 FMM=F ISym2X=0 I1Cent= 0 IOpClX= 0 NMat=1 NMatS=1 NMatT=0.
 ***** Axes restored to original set *****
 -------------------------------------------------------------------
 Center     Atomic                   Forces (Hartrees/Bohr)
 Number     Number              X              Y              Z
 -------------------------------------------------------------------
      1        6           0.006540716    0.010209402    0.017928542
      2        1           0.000809696   -0.012225857   -0.001101553
      3        1           0.002539391    0.001667151   -0.010214252
      4        1          -0.009414989   -0.000616226   -0.002933183
      5        6          -0.006022768   -0.020551246   -0.012222464
      6        1          -0.005238840   -0.022354127    0.004227916
      7        1          -0.004993777   -0.004546884    0.011053527
      8        6          -0.010691795    0.015551577    0.018780759
      9        1           0.004336417    0.001883618   -0.009872510
     10        1           0.003179559   -0.013105427    0.002798489
     11        6          -0.014973439   -0.017415879    0.007276766
     12        1           0.002927713   -0.006017422    0.012477783
     13        1           0.015253709   -0.017652549    0.006558307
     14        7          -0.002609059   -0.001646306    0.007621764
     15        1           0.007901854    0.006281478    0.006656719
     16        1           0.007524590   -0.010851492    0.000863535
     17        1           0.005186441    0.003420849   -0.011070025
     18        6          -0.053965696   -0.013697308   -0.040023104
     19        1           0.009926488    0.013194606    0.012657343
     20        8           0.023926405    0.007883179    0.014465927
     21        8           0.017857384    0.080588863   -0.035930286
 -------------------------------------------------------------------
 Cartesian Forces:  Max     0.080588863 RMS     0.017444446

 GradGradGradGradGradGradGradGradGradGradGradGradGradGradGradGradGradGrad
 Berny optimization.
 Using GEDIIS/GDIIS optimizer.
 Internal  Forces:  Max     0.043716003 RMS     0.011320997
 Search for a local minimum.
 Step number   2 out of a maximum of  119
 All quantities printed in internal units (Hartrees-Bohrs-Radians)
 Mixed Optimization -- RFO/linear search
 Update second derivatives using D2CorX and points    1    2
 DE= -4.31D-02 DEPred=-4.76D-02 R= 9.04D-01
 SS=  1.41D+00  RLast= 3.00D-01 DXNew= 5.0454D-01 8.9894D-01
 Trust test= 9.04D-01 RLast= 3.00D-01 DXMaxT set to 5.05D-01
 Use linear search instead of GDIIS.
 Linear search step of   0.599 exceeds DXMaxT=   0.505 but not scaled.
 Quartic linear search produced a step of  2.00000.
 Iteration  1 RMS(Cart)=  0.10602739 RMS(Int)=  0.00767288
 Iteration  2 RMS(Cart)=  0.01175794 RMS(Int)=  0.00443335
 Iteration  3 RMS(Cart)=  0.00008988 RMS(Int)=  0.00443306
 Iteration  4 RMS(Cart)=  0.00000096 RMS(Int)=  0.00443306
 Variable       Old X    -DE/DX   Delta X   Delta X   Delta X     New X
                                 (Linear)    (Quad)   (Total)
    R1        2.03734   0.01150   0.03067   0.00000   0.03067   2.06802
    R2        2.03570   0.01044   0.02738   0.00000   0.02738   2.06308
    R3        2.03466   0.00951   0.02531   0.00000   0.02531   2.05997
    R4        2.90933  -0.00213  -0.00170   0.00000  -0.00170   2.90763
    R5        2.07142   0.02311   0.09883   0.00000   0.09918   2.17060
    R6        2.03981   0.01286   0.03560   0.00000   0.03560   2.07541
    R7        2.91833   0.00140   0.01630   0.00000   0.00870   2.92703
    R8        3.21207   0.04225   0.25955   0.00000   0.26684   3.47891
    R9        2.03441   0.01092   0.02481   0.00000   0.02481   2.05923
   R10        2.04195   0.01376   0.03989   0.00000   0.03989   2.08185
   R11        2.91267  -0.00210   0.00498   0.00000  -0.00325   2.90942
   R12        2.03826   0.01132   0.03250   0.00000   0.03250   2.07076
   R13        2.08466   0.02894   0.12530   0.00000   0.12475   2.20941
   R14        2.80431   0.01834   0.05282   0.00000   0.05282   2.85713
   R15        2.95185   0.04372   0.26840   0.00000   0.27499   3.22684
   R16        1.90277   0.01141   0.02609   0.00000   0.02609   1.92887
   R17        1.90381   0.01227   0.02818   0.00000   0.02818   1.93199
   R18        1.90418   0.01267   0.02890   0.00000   0.02890   1.93308
   R19        2.04785   0.02071   0.05169   0.00000   0.05169   2.09954
   R20        2.36507  -0.02485  -0.02593   0.00000  -0.02593   2.33913
   R21        2.38989   0.01232   0.02372   0.00000   0.02372   2.41362
    A1        1.90530  -0.00302  -0.01067   0.00000  -0.01079   1.89451
    A2        1.90432  -0.00343  -0.01262   0.00000  -0.01284   1.89149
    A3        1.92300   0.00571   0.02474   0.00000   0.02457   1.94757
    A4        1.90522  -0.00270  -0.01082   0.00000  -0.01081   1.89441
    A5        1.91162   0.00118   0.00198   0.00000   0.00192   1.91354
    A6        1.91422   0.00213   0.00718   0.00000   0.00707   1.92129
    A7        1.91279   0.00132   0.00431   0.00000   0.00953   1.92232
    A8        1.90792  -0.00142  -0.00542   0.00000  -0.00679   1.90114
    A9        1.91148   0.00363   0.00170   0.00000  -0.00154   1.90994
   A10        1.90772   0.00102  -0.00583   0.00000  -0.00614   1.90158
   A11        1.91872  -0.00300   0.01616   0.00000   0.01014   1.92885
   A12        1.90513  -0.00158  -0.01101   0.00000  -0.00550   1.89963
   A13        2.01593   0.02518   0.12173   0.00000   0.12377   2.13970
   A14        1.90037  -0.00360  -0.02052   0.00000  -0.02212   1.87825
   A15        1.91054  -0.00079  -0.00019   0.00000   0.00294   1.91348
   A16        1.93039   0.00700   0.03951   0.00000   0.03653   1.96692
   A17        1.91043   0.00083  -0.00040   0.00000  -0.00101   1.90942
   A18        1.90449  -0.00157  -0.01229   0.00000  -0.01340   1.89109
   A19        1.90751  -0.00189  -0.00625   0.00000  -0.00364   1.90387
   A20        1.91199   0.00079   0.00271   0.00000   0.00780   1.91979
   A21        1.91443  -0.00296   0.00759   0.00000   0.00103   1.91545
   A22        1.90825   0.00256  -0.00476   0.00000  -0.00736   1.90089
   A23        1.91407   0.00295   0.00686   0.00000   0.00629   1.92036
   A24        1.90248  -0.00349  -0.01631   0.00000  -0.01769   1.88479
   A25        1.91254   0.00015   0.00382   0.00000   0.00971   1.92225
   A26        2.05935   0.02513   0.13200   0.00000   0.13389   2.19325
   A27        1.92086   0.00463   0.02045   0.00000   0.02015   1.94101
   A28        1.92408   0.00566   0.02690   0.00000   0.02662   1.95070
   A29        1.90467  -0.00224  -0.01192   0.00000  -0.01178   1.89290
   A30        1.90394  -0.00352  -0.01339   0.00000  -0.01404   1.88990
   A31        1.90558  -0.00215  -0.01010   0.00000  -0.00997   1.89561
   A32        1.90453  -0.00250  -0.01222   0.00000  -0.01206   1.89246
   A33        2.06849  -0.01156  -0.05182   0.00000  -0.05203   2.01646
   A34        2.07029  -0.01210  -0.04821   0.00000  -0.04841   2.02188
   A35        2.14429   0.02362   0.09979   0.00000   0.09958   2.24388
   A36        1.79405  -0.03181  -0.15489   0.00000  -0.15545   1.63860
   A37        1.72152   0.01465   0.07251   0.00000   0.07424   1.79576
   A38        1.72179   0.02507   0.12378   0.00000   0.12181   1.84359
    D1       -3.13697  -0.00074   0.00925   0.00000   0.00659  -3.13038
    D2       -1.04649   0.00045   0.00142   0.00000   0.00068  -1.04580
    D3        1.04004  -0.00015  -0.01431   0.00000  -0.01099   1.02905
    D4        1.05013  -0.00132   0.00586   0.00000   0.00319   1.05332
    D5        3.14061  -0.00014  -0.00196   0.00000  -0.00271   3.13790
    D6       -1.05605  -0.00073  -0.01770   0.00000  -0.01439  -1.07044
    D7       -1.04044  -0.00006   0.01351   0.00000   0.01094  -1.02950
    D8        1.05004   0.00113   0.00569   0.00000   0.00503   1.05507
    D9        3.13657   0.00054  -0.01005   0.00000  -0.00664   3.12992
   D10       -2.14231   0.00152   0.00024   0.00000  -0.00763  -2.14995
   D11        2.05026   0.00183   0.00781   0.00000  -0.00133   2.04893
   D12       -0.04053   0.00496   0.01501   0.00000   0.00306  -0.03747
   D13        1.04721   0.00025   0.00002   0.00000   0.00039   1.04760
   D14       -1.04065   0.00188   0.01309   0.00000   0.01300  -1.02765
   D15        3.13977   0.00032  -0.00365   0.00000  -0.00830   3.13147
   D16       -1.05536  -0.00180  -0.01632   0.00000  -0.01686  -1.07222
   D17        3.13996  -0.00017  -0.00326   0.00000  -0.00424   3.13572
   D18        1.03720  -0.00173  -0.02000   0.00000  -0.02555   1.01165
   D19        3.13545  -0.00025  -0.01228   0.00000  -0.01207   3.12339
   D20        1.04759   0.00138   0.00078   0.00000   0.00055   1.04814
   D21       -1.05518  -0.00018  -0.01596   0.00000  -0.02075  -1.07593
   D22       -0.86148   0.02165   0.16016   0.00000   0.14153  -0.71995
   D23       -2.62395  -0.00203   0.03640   0.00000   0.03629  -2.58766
   D24        1.06487   0.00371   0.03535   0.00000   0.04024   1.10511
   D25       -1.03691   0.00143   0.02057   0.00000   0.02689  -1.01002
   D26       -3.13451   0.00148   0.01416   0.00000   0.01891  -3.11560
   D27       -3.12823   0.00258   0.02673   0.00000   0.02656  -3.10166
   D28        1.05317   0.00030   0.01195   0.00000   0.01321   1.06638
   D29       -1.04443   0.00035   0.00554   0.00000   0.00524  -1.03919
   D30       -1.03970   0.00151   0.01500   0.00000   0.01531  -1.02438
   D31       -3.14148  -0.00077   0.00022   0.00000   0.00196  -3.13952
   D32        1.04410  -0.00072  -0.00619   0.00000  -0.00601   1.03809
   D33       -0.01368  -0.00377  -0.00630   0.00000   0.00466  -0.00902
   D34       -2.11421  -0.00474  -0.01856   0.00000  -0.00961  -2.12382
   D35        2.08131  -0.00237  -0.00511   0.00000   0.00227   2.08357
   D36       -3.14085  -0.00164   0.00148   0.00000  -0.00215   3.14019
   D37       -1.03989   0.00057   0.01461   0.00000   0.01140  -1.02849
   D38        1.05155  -0.00044   0.00871   0.00000   0.00528   1.05684
   D39       -1.05119  -0.00125  -0.00798   0.00000  -0.00742  -1.05861
   D40        1.04977   0.00096   0.00515   0.00000   0.00612   1.05589
   D41        3.14122  -0.00004  -0.00075   0.00000   0.00001   3.14122
   D42        1.04358   0.00032  -0.00724   0.00000  -0.00478   1.03879
   D43       -3.13865   0.00253   0.00589   0.00000   0.00876  -3.12989
   D44       -1.04720   0.00152  -0.00001   0.00000   0.00264  -1.04456
   D45        0.88524  -0.02151  -0.15864   0.00000  -0.13921   0.74603
   D46        2.64750  -0.00600  -0.07234   0.00000  -0.07678   2.57071
   D47        2.52338  -0.01404  -0.07963   0.00000  -0.07500   2.44838
   D48        0.70028   0.01095   0.04531   0.00000   0.04068   0.74097
   D49       -0.60155  -0.01063  -0.04631   0.00000  -0.04168  -0.64323
   D50       -2.42465   0.01435   0.07864   0.00000   0.07400  -2.35065
         Item               Value     Threshold  Converged?
 Maximum Force            0.043716     0.000450     NO 
 RMS     Force            0.011321     0.000300     NO 
 Maximum Displacement     0.549089     0.001800     NO 
 RMS     Displacement     0.115924     0.001200     NO 
 Predicted change in Energy=-2.544602D-02
 GradGradGradGradGradGradGradGradGradGradGradGradGradGradGradGradGradGrad

                          Input orientation:                          
 ---------------------------------------------------------------------
 Center     Atomic      Atomic             Coordinates (Angstroms)
 Number     Number       Type             X           Y           Z
 ---------------------------------------------------------------------
      1          6           0       -2.070878   -0.935887    0.106344
      2          1           0       -1.822405   -1.972346    0.354560
      3          1           0       -1.598604   -0.683867   -0.845142
      4          1           0       -3.151852   -0.860691   -0.012544
      5          6           0       -1.590224    0.038074    1.196216
      6          1           0       -1.873856    1.115504    0.916824
      7          1           0       -2.074820   -0.223351    2.146478
      8          6           0       -0.056065   -0.093155    1.364370
      9          1           0        0.402802    0.152022    0.406892
     10          1           0        0.199060   -1.129408    1.637791
     11          6           0        0.508497    0.862497    2.431308
     12          1           0        0.094628    0.612730    3.414724
     13          1           0        0.242159    1.966492    2.153431
     14          7           0        2.009065    0.690252    2.498743
     15          1           0        2.421005    1.310628    3.196805
     16          1           0        2.270363   -0.270802    2.729676
     17          1           0        2.403009    0.921455    1.583448
     18          6           0       -1.284092    3.497983    1.129991
     19          1           0       -0.731284    4.227232    1.760057
     20          8           0       -2.470287    3.774681    0.909614
     21          8           0       -0.627899    2.462843    0.770525
 ---------------------------------------------------------------------
                    Distance matrix (angstroms):
                    1          2          3          4          5
     1  C    0.000000
     2  H    1.094349   0.000000
     3  H    1.091733   1.774697   0.000000
     4  H    1.090088   1.771432   1.771176   0.000000
     5  C    1.538652   2.191822   2.165274   2.169692   0.000000
     6  H    2.214475   3.139046   2.533382   2.530286   1.148635
     7  H    2.160989   2.516679   3.064090   2.495512   1.098260
     8  C    2.520377   2.769664   2.758680   3.474033   1.548916
     9  H    2.719002   3.076886   2.504382   3.719823   2.146664
    10  H    2.745069   2.538415   3.097590   3.744921   2.181637
    11  C    3.910604   4.216909   4.191210   4.726515   2.570944
    12  H    4.246530   4.440973   4.763891   4.945379   2.844421
    13  H    4.238456   4.797167   4.405026   4.919728   2.827133
    14  N    5.001384   5.134892   5.107352   5.945339   3.882884
    15  H    5.897016   6.071475   6.039255   6.787583   4.659582
    16  H    5.115720   5.028636   5.283829   6.104765   4.165457
    17  H    5.064309   5.266724   4.948537   6.048117   4.108068
    18  C    4.618018   5.551178   4.635509   4.877700   3.474057
    19  H    5.584539   6.449864   5.626562   5.906626   4.313321
    20  O    4.795229   5.810005   4.870077   4.775101   3.849530
    21  O    3.751625   4.612025   3.668028   4.246106   2.643253
                    6          7          8          9         10
     6  H    0.000000
     7  H    1.828925   0.000000
     8  C    2.228344   2.168874   0.000000
     9  H    2.524183   3.050521   1.089695   0.000000
    10  H    3.139491   2.500047   1.101667   1.788488   0.000000
    11  C    2.834304   2.816686   1.539596   2.148071   2.166358
    12  H    3.219816   2.648393   2.173691   3.058476   2.490671
    13  H    2.594397   3.188080   2.225691   2.523590   3.138844
    14  N    4.214307   4.199628   2.483000   2.691768   2.707123
    15  H    4.866437   4.865051   3.385897   3.633060   3.649841
    16  H    4.731049   4.384403   2.703310   3.010297   2.493935
    17  H    4.332853   4.656022   2.669171   2.444819   3.011044
    18  C    2.463629   3.937870   3.802532   3.816272   4.885729
    19  H    3.420433   4.664987   4.390698   4.441232   5.438206
    20  O    2.725253   4.203628   4.582077   4.650917   5.630786
    21  O    1.840960   3.347009   2.685660   2.556260   3.786856
                   11         12         13         14         15
    11  C    0.000000
    12  H    1.095800   0.000000
    13  H    1.169170   1.856151   0.000000
    14  N    1.511926   2.123699   2.206805   0.000000
    15  H    2.108197   2.438561   2.503229   1.020712   0.000000
    16  H    2.116025   2.446169   3.074273   1.022365   1.655845
    17  H    2.076420   2.962686   2.467034   1.022943   1.659729
    18  C    3.442759   3.930084   2.392140   4.538912   4.773257
    19  H    3.648161   4.060133   2.492645   4.534909   4.528548
    20  O    4.435034   4.780408   3.489125   5.666007   5.935279
    21  O    2.571129   3.307076   1.707570   3.616960   4.063280
                   16         17         18         19         20
    16  H    0.000000
    17  H    1.659189   0.000000
    18  C    5.421889   4.520933   0.000000
    19  H    5.493847   4.558854   1.111028   0.000000
    20  O    6.492482   5.687176   1.237816   1.988011   0.000000
    21  O    4.439708   3.496159   1.277231   2.025569   2.265979
                   21
    21  O    0.000000
 Stoichiometry    C5H13NO2
 Framework group  C1[X(C5H13NO2)]
 Deg. of freedom    57
 Full point group                 C1      NOp   1
 Largest Abelian subgroup         C1      NOp   1
 Largest concise Abelian subgroup C1      NOp   1
                         Standard orientation:                         
[...]
 Berny optimization.
 Using GEDIIS/GDIIS optimizer.
 Internal  Forces:  Max     0.147840404 RMS     0.025861402
 Search for a local minimum.
 Step number 116 out of a maximum of  119
 All quantities printed in internal units (Hartrees-Bohrs-Radians)
 Mixed Optimization -- RFO/linear search
 Update second derivatives using D2CorX and points   53   54   55   56   57
                                                     58   59   60   61   62
                                                     63   64   65   66  116
                                                     67
 Use linear search instead of GDIIS.
 Skip linear search -- no minimum in search direction.
 Steepest descent instead of Quadratic search.
 Maximum step size (   0.095) exceeded in Quadratic search.
    -- Step size scaled by   0.704
 Steepest descent step scaled to max of 0.05000.
 Iteration  1 RMS(Cart)=  0.04014493 RMS(Int)=  0.00064744
 Iteration  2 RMS(Cart)=  0.00082525 RMS(Int)=  0.00004765
 Iteration  3 RMS(Cart)=  0.00000044 RMS(Int)=  0.00004765
 Variable       Old X    -DE/DX   Delta X   Delta X   Delta X     New X
                                 (Linear)    (Quad)   (Total)
    R1        2.06439   0.00005   0.00000   0.00002   0.00002   2.06441
    R2        2.06471   0.00002   0.00000   0.00001   0.00001   2.06472
    R3        2.06320  -0.00002   0.00000  -0.00001  -0.00001   2.06320
    R4        2.86079   0.00034   0.00000   0.00012   0.00012   2.86090
    R5        2.05939  -0.00227   0.00000  -0.00077  -0.00073   2.05866
    R6        2.07819  -0.00014   0.00000  -0.00005  -0.00005   2.07814
    R7        2.89307   0.01308   0.00000   0.00442   0.00448   2.89755
    R8        8.74034  -0.00725   0.00000  -0.00245  -0.00250   8.73784
    R9        2.06002   0.00015   0.00000   0.00005   0.00005   2.06007
   R10        2.06927   0.00005   0.00000   0.00002   0.00002   2.06928
   R11        2.90189   0.00488   0.00000   0.00165   0.00166   2.90355
   R12        2.07105   0.00025   0.00000   0.00008   0.00008   2.07114
   R13        2.08280  -0.00573   0.00000  -0.00194  -0.00198   2.08082
   R14        2.78961   0.01221   0.00000   0.00413   0.00413   2.79374
   R15        6.23343   0.06310   0.00000   0.02134   0.02138   6.25481
   R16        1.91904  -0.00004   0.00000  -0.00001  -0.00001   1.91903
   R17        1.92021  -0.00005   0.00000  -0.00002  -0.00002   1.92019
   R18        3.33937  -0.05625   0.00000  -0.01902  -0.01902   3.32035
   R19        2.09634  -0.00309   0.00000  -0.00104  -0.00104   2.09529
   R20        2.25582  -0.00236   0.00000  -0.00080  -0.00080   2.25502
   R21        2.51119  -0.00107   0.00000  -0.00036  -0.00036   2.51083
    A1        1.88136  -0.00036   0.00000  -0.00012  -0.00012   1.88124
    A2        1.88270  -0.00023   0.00000  -0.00008  -0.00008   1.88262
    A3        1.92110   0.00035   0.00000   0.00012   0.00012   1.92122
    A4        1.88176   0.00005   0.00000   0.00002   0.00002   1.88177
    A5        1.94783  -0.00018   0.00000  -0.00006  -0.00006   1.94777
    A6        1.94655   0.00034   0.00000   0.00012   0.00012   1.94667
    A7        2.06180  -0.00583   0.00000  -0.00197  -0.00198   2.05982
    A8        1.92910   0.00175   0.00000   0.00059   0.00060   1.92970
    A9        2.03199   0.00846   0.00000   0.00286   0.00286   2.03485
   A10        1.75327  -0.00036   0.00000  -0.00012  -0.00013   1.75314
   A11        1.80611   0.00387   0.00000   0.00131   0.00132   1.80744
   A12        1.85094  -0.00980   0.00000  -0.00331  -0.00332   1.84762
   A13        1.23623  -0.01850   0.00000  -0.00626  -0.00629   1.22994
   A14        1.96622   0.01161   0.00000   0.00393   0.00393   1.97015
   A15        1.91766  -0.00372   0.00000  -0.00126  -0.00126   1.91640
   A16        1.86047  -0.01236   0.00000  -0.00418  -0.00419   1.85627
   A17        1.86720  -0.00230   0.00000  -0.00078  -0.00078   1.86642
   A18        1.84654   0.00529   0.00000   0.00179   0.00179   1.84833
   A19        2.00714   0.00263   0.00000   0.00089   0.00089   2.00803
   A20        1.94517  -0.01920   0.00000  -0.00649  -0.00638   1.93880
   A21        1.82679  -0.01566   0.00000  -0.00530  -0.00527   1.82152
   A22        1.96516   0.10276   0.00000   0.03475   0.03489   2.00005
   A23        1.92356   0.03022   0.00000   0.01022   0.01007   1.93362
   A24        1.92605  -0.05637   0.00000  -0.01906  -0.01911   1.90694
   A25        1.87319  -0.03987   0.00000  -0.01348  -0.01351   1.85969
   A26        1.25120   0.03037   0.00000   0.01027   0.01029   1.26149
   A27        1.91878  -0.02308   0.00000  -0.00781  -0.00779   1.91098
   A28        1.91308   0.00059   0.00000   0.00020   0.00015   1.91324
   A29        1.82058   0.06903   0.00000   0.02335   0.02332   1.84390
   A30        1.85620   0.00052   0.00000   0.00018   0.00016   1.85636
   A31        2.07596  -0.04407   0.00000  -0.01490  -0.01487   2.06110
   A32        1.87598  -0.00072   0.00000  -0.00024  -0.00034   1.87564
   A33        2.14326  -0.00109   0.00000  -0.00037  -0.00037   2.14289
   A34        1.98195   0.00251   0.00000   0.00085   0.00085   1.98279
   A35        2.15747  -0.00146   0.00000  -0.00049  -0.00049   2.15697
   A36        0.45617   0.00510   0.00000   0.00173   0.00173   0.45790
   A37        2.91075  -0.00538   0.00000  -0.00182  -0.00180   2.90895
   A38        2.88508  -0.00037   0.00000  -0.00012  -0.00015   2.88493
    D1       -3.08813   0.00363   0.00000   0.00123   0.00124  -3.08689
    D2       -1.08396   0.00064   0.00000   0.00022   0.00022  -1.08374
    D3        1.02875  -0.00483   0.00000  -0.00163  -0.00164   1.02711
    D4        1.10687   0.00396   0.00000   0.00134   0.00135   1.10822
    D5        3.11105   0.00097   0.00000   0.00033   0.00033   3.11137
    D6       -1.05943  -0.00449   0.00000  -0.00152  -0.00153  -1.06096
    D7       -0.99909   0.00379   0.00000   0.00128   0.00129  -0.99780
    D8        1.00508   0.00080   0.00000   0.00027   0.00027   1.00535
    D9        3.11779  -0.00467   0.00000  -0.00158  -0.00159   3.11621
   D10       -1.97631   0.01608   0.00000   0.00544   0.00545  -1.97086
   D11        2.20898   0.01721   0.00000   0.00582   0.00583   2.21481
   D12        0.29830   0.02669   0.00000   0.00903   0.00905   0.30735
   D13        0.90035  -0.00376   0.00000  -0.00127  -0.00127   0.89908
   D14       -1.17960  -0.00584   0.00000  -0.00197  -0.00197  -1.18157
   D15        2.91814   0.00130   0.00000   0.00044   0.00043   2.91857
   D16       -1.39205  -0.00567   0.00000  -0.00192  -0.00193  -1.39397
   D17        2.81119  -0.00775   0.00000  -0.00262  -0.00263   2.80856
   D18        0.62575  -0.00061   0.00000  -0.00021  -0.00023   0.62552
   D19        3.05405  -0.00348   0.00000  -0.00118  -0.00118   3.05288
   D20        0.97411  -0.00556   0.00000  -0.00188  -0.00188   0.97223
   D21       -1.21134   0.00158   0.00000   0.00053   0.00052  -1.21081
   D22       -2.48524   0.01363   0.00000   0.00461   0.00466  -2.48058
   D23        1.04303   0.01119   0.00000   0.00379   0.00384   1.04687
   D24        0.87226  -0.00750   0.00000  -0.00254  -0.00258   0.86968
   D25       -1.20667  -0.02427   0.00000  -0.00821  -0.00817  -1.21483
   D26        3.04749  -0.01856   0.00000  -0.00628  -0.00626   3.04123
   D27        2.96903   0.00245   0.00000   0.00083   0.00077   2.96981
   D28        0.89011  -0.01432   0.00000  -0.00484  -0.00481   0.88530
   D29       -1.13892  -0.00861   0.00000  -0.00291  -0.00290  -1.14182
   D30       -1.25760   0.00467   0.00000   0.00158   0.00153  -1.25607
   D31        2.94666  -0.01211   0.00000  -0.00410  -0.00405   2.94261
   D32        0.91763  -0.00639   0.00000  -0.00216  -0.00215   0.91548
   D33       -1.20290   0.05655   0.00000   0.01913   0.01906  -1.18384
   D34        2.98684   0.07274   0.00000   0.02460   0.02451   3.01135
   D35        0.88884   0.14784   0.00000   0.05000   0.05003   0.93887
   D36       -3.13649   0.01410   0.00000   0.00477   0.00474  -3.13175
   D37       -1.10208   0.00170   0.00000   0.00058   0.00054  -1.10154
   D38        0.90226   0.03639   0.00000   0.01231   0.01233   0.91459
   D39       -0.95080   0.02222   0.00000   0.00751   0.00738  -0.94342
   D40        1.08361   0.00982   0.00000   0.00332   0.00318   1.08679
   D41        3.08795   0.04451   0.00000   0.01505   0.01498   3.10292
   D42        1.14561   0.00208   0.00000   0.00070   0.00082   1.14643
   D43       -3.10316  -0.01032   0.00000  -0.00349  -0.00339  -3.10655
   D44       -1.09882   0.02437   0.00000   0.00824   0.00841  -1.09041
   D45        1.33873   0.02225   0.00000   0.00752   0.00738   1.34611
   D46       -2.14988   0.01664   0.00000   0.00563   0.00555  -2.14433
   D47        2.36682   0.00075   0.00000   0.00026   0.00029   2.36710
   D48       -0.06089   0.00337   0.00000   0.00114   0.00111  -0.05978
   D49       -0.74114   0.00201   0.00000   0.00068   0.00071  -0.74043
   D50        3.11434   0.00463   0.00000   0.00156   0.00153   3.11588
         Item               Value     Threshold  Converged?
 Maximum Force            0.147840     0.000450     NO 
 RMS     Force            0.025861     0.000300     NO 
 Maximum Displacement     0.193526     0.001800     NO 
 RMS     Displacement     0.040226     0.001200     NO 
 Predicted change in Energy=-1.343414D-01
 GradGradGradGradGradGradGradGradGradGradGradGradGradGradGradGradGradGrad

                          Input orientation:                          
 ---------------------------------------------------------------------
 Center     Atomic      Atomic             Coordinates (Angstroms)
 Number     Number       Type             X           Y           Z
 ---------------------------------------------------------------------
      1          6           0       -2.303427   -1.334596    0.204338
      2          1           0       -1.691589   -1.508354   -0.683854
      3          1           0       -2.960905   -0.487153   -0.003841
      4          1           0       -2.931063   -2.214955    0.356198
      5          6           0       -1.416757   -1.070801    1.402753
      6          1           0       -1.894329   -0.931645    2.371951
      7          1           0       -0.784748   -1.945225    1.615584
      8          6           0       -0.459719    0.122666    1.298928
      9          1           0       -0.961303    1.043535    1.000903
     10          1           0        0.307244   -0.081401    0.544483
     11          6           0        0.073881    0.374109    2.717680
     12          1           0        0.443257   -0.553289    3.170123
     13          1           0       -0.795601    0.760162    3.272145
     14          7           0        1.123704    1.411316    2.805367
     15          1           0        1.425400    1.507336    3.770255
     16          1           0        1.940451    1.115532    2.278169
     17          1           0        0.460736    2.825843    2.001114
     18          6           0        0.429602    4.149691    0.401907
     19          1           0        0.536317    5.023732    1.075746
     20          8           0        0.596999    4.219007   -0.777565
     21          8           0        0.060169    3.037376    1.027725
 ---------------------------------------------------------------------
                    Distance matrix (angstroms):
                    1          2          3          4          5
     1  C    0.000000
     2  H    1.092439   0.000000
     3  H    1.092600   1.765342   0.000000
     4  H    1.091796   1.765584   1.765167   0.000000
     5  C    1.513925   2.149631   2.168765   2.167368   0.000000
     6  H    2.242381   3.116350   2.641883   2.604795   1.089396
     7  H    2.161219   2.510106   3.079638   2.503093   1.099704
     8  C    2.592489   2.847657   2.885311   3.529979   1.533319
     9  H    2.844525   3.143861   2.711259   3.861781   2.199850
    10  H    2.915784   2.745967   3.338576   3.882541   2.165114
    11  C    3.858517   4.269776   4.166339   4.616225   2.457398
    12  H    4.117110   4.508088   4.654755   4.697376   2.617455
    13  H    4.009114   4.647460   4.120246   4.681267   2.689403
    14  N    5.103980   5.350234   5.308471   5.965685   3.818661
    15  H    5.890373   6.216839   6.120577   6.670082   4.508849
    16  H    5.321128   5.371226   5.639101   6.206267   4.100884
    17  H    5.308320   5.534150   5.167535   6.294417   4.366561
    18  C    6.130733   6.139365   5.758515   7.197560   5.627102
    19  H    7.017966   7.122353   6.615582   8.058477   6.408180
    20  O    6.341854   6.168394   5.950233   7.424857   6.065565
    21  O    5.037727   5.163509   4.755347   6.081562   4.381675
                    6          7          8          9         10
     6  H    0.000000
     7  H    1.682440   0.000000
     8  C    2.078715   2.117094   0.000000
     9  H    2.579079   3.056418   1.090140   0.000000
    10  H    2.984874   2.411128   1.095017   1.755851   0.000000
    11  C    2.387127   2.707613   1.536493   2.113542   2.232652
    12  H    2.498908   2.421172   2.184869   3.037788   2.671173
    13  H    2.209019   3.172291   2.100668   2.294842   3.060169
    14  N    3.845236   4.040314   2.537165   2.781835   2.829560
    15  H    4.350228   4.631149   3.402711   3.685210   3.765630
    16  H    4.348018   4.151380   2.775880   3.171240   2.665648
    17  H    4.450008   4.946004   2.940658   2.489827   3.255366
    18  C    5.924669   6.332113   4.220482   3.455664   4.235262
    19  H    6.561609   7.113579   5.006231   4.253285   5.137811
    20  O    6.531109   6.755305   4.712588   3.959151   4.508357
    21  O    4.623866   5.087806   2.973108   2.240429   3.165650
                   11         12         13         14         15
    11  C    0.000000
    12  H    1.095998   0.000000
    13  H    1.101121   1.808406   0.000000
    14  N    1.478382   2.110860   2.079811   0.000000
    15  H    2.053952   2.360284   2.395668   1.015505   0.000000
    16  H    2.055957   2.412910   2.932619   1.016121   1.626379
    17  H    2.583433   3.575671   2.731473   1.757053   2.408090
    18  C    4.443463   5.457218   4.607418   3.709056   4.395386
    19  H    4.952655   5.958040   4.977570   4.047983   4.518395
    20  O    5.222416   6.195377   5.504825   4.582352   5.359298
    21  O    3.154223   4.198750   3.309904   2.633475   3.424376
                   16         17         18         19         20
    16  H    0.000000
    17  H    2.278482   0.000000
    18  C    3.874164   2.076296   0.000000
    19  H    4.323360   2.385945   1.108781   0.000000
    20  O    4.557843   3.111355   1.193307   2.021393   0.000000
    21  O    2.965225   1.073632   1.328674   2.043192   2.223401
                   21
    21  O    0.000000
 Stoichiometry    C5H13NO2
 Framework group  C1[X(C5H13NO2)]
 Deg. of freedom    57
 Full point group                 C1      NOp   1
 Largest Abelian subgroup         C1      NOp   1
 Largest concise Abelian subgroup C1      NOp   1
                         Standard orientation:                         
 ---------------------------------------------------------------------
 Center     Atomic      Atomic             Coordinates (Angstroms)
 Number     Number       Type             X           Y           Z
 ---------------------------------------------------------------------
      1          6           0       -3.028199   -1.734449   -0.055259
      2          1           0       -2.815541   -2.177976    0.920181
      3          1           0       -2.469863   -2.297612   -0.806847
      4          1           0       -4.092287   -1.868736   -0.259471
      5          6           0       -2.642669   -0.270436   -0.055688
      6          1           0       -2.849084    0.312862   -0.952315
      7          1           0       -3.235966    0.285451    0.684809
      8          6           0       -1.176228    0.053165    0.253988
      9          1           0       -0.477885   -0.512726   -0.362851
     10          1           0       -0.953887   -0.194919    1.297099
     11          6           0       -0.969966    1.528581   -0.122063
     12          1           0       -1.748550    2.160709    0.320016
     13          1           0       -1.033261    1.541768   -1.221284
     14          7           0        0.358573    2.073316    0.229877
     15          1           0        0.407341    3.050256   -0.042999
     16          1           0        0.480044    2.051430    1.238474
     17          1           0        1.526627    0.960529   -0.466249
     18          6           0        2.975944   -0.510467   -0.250254
     19          1           0        3.707215    0.070500   -0.847845
     20          8           0        3.288895   -1.444304    0.423535
     21          8           0        1.722579   -0.092335   -0.390310
 ---------------------------------------------------------------------
 Rotational constants (GHZ):      2.3657317      0.7924409      0.6178381
 Standard basis: 6-311+G(d) (5D, 7F)
 There are   215 symmetry adapted basis functions of A   symmetry.
 Integral buffers will be    131072 words long.
 Raffenetti 2 integral format.
 Two-electron integral symmetry is turned on.
   215 basis functions,   353 primitive gaussians,   223 cartesian basis functions
    33 alpha electrons       33 beta electrons
       nuclear repulsion energy       379.6266481544 Hartrees.
 NAtoms=   21 NActive=   21 NUniq=   21 SFac= 7.50D-01 NAtFMM=   80 NAOKFM=F Big=F
 One-electron integrals computed using PRISM.
 NBasis=   215 RedAO= T  NBF=   215
 NBsUse=   215 1.00D-06 NBFU=   215
 Initial guess read from the read-write file.
 B after Tr=     0.000000    0.000000    0.000000
         Rot=    1.000000    0.000000    0.000000    0.000000 Ang=   0.00 deg.
 Initial guess orbital symmetries:
       Occupied  (A) (A) (A) (A) (A) (A) (A) (A) (A) (A) (A) (A)
                 (A) (A) (A) (A) (A) (A) (A) (A) (A) (A) (A) (A)
                 (A) (A) (A) (A) (A) (A) (A) (A) (A)
       Virtual   (A) (A) (A) (A) (A) (A) (A) (A) (A) (A) (A) (A)
                 (A) (A) (A) (A) (A) (A) (A) (A) (A) (A) (A) (A)
                 (A) (A) (A) (A) (A) (A) (A) (A) (A) (A) (A) (A)
                 (A) (A) (A) (A) (A) (A) (A) (A) (A) (A) (A) (A)
                 (A) (A) (A) (A) (A) (A) (A) (A) (A) (A) (A) (A)
                 (A) (A) (A) (A) (A) (A) (A) (A) (A) (A) (A) (A)
                 (A) (A) (A) (A) (A) (A) (A) (A) (A) (A) (A) (A)
                 (A) (A) (A) (A) (A) (A) (A) (A) (A) (A) (A) (A)
                 (A) (A) (A) (A) (A) (A) (A) (A) (A) (A) (A) (A)
                 (A) (A) (A) (A) (A) (A) (A) (A) (A) (A) (A) (A)
                 (A) (A) (A) (A) (A) (A) (A) (A) (A) (A) (A) (A)
                 (A) (A) (A) (A) (A) (A) (A) (A) (A) (A) (A) (A)
                 (A) (A) (A) (A) (A) (A) (A) (A) (A) (A) (A) (A)
                 (A) (A) (A) (A) (A) (A) (A) (A) (A) (A) (A) (A)
                 (A) (A) (A) (A) (A) (A) (A) (A) (A) (A) (A) (A)
                 (A) (A)
 Harris functional with IExCor= 1009 diagonalized for initial guess.
 ExpMin= 4.38D-02 ExpMax= 8.59D+03 ExpMxC= 1.30D+03 IAcc=2 IRadAn=         0 AccDes= 0.00D+00
 HarFok:  IExCor= 1009 AccDes= 0.00D+00 IRadAn=         0 IDoV= 1
 ScaDFX=  1.000000  1.000000  1.000000  1.000000
 FoFCou: FMM=F IPFlag=           0 FMFlag=      100000 FMFlg1=           0
         NFxFlg=           0 DoJE=T BraDBF=F KetDBF=T FulRan=T
         Omega=  0.000000  0.000000  1.000000  0.000000  0.000000 ICntrl=     500 IOpCl=  0
         NMat0=    1 NMatS0=    1 NMatT0=    0 NMatD0=    1 NMtDS0=    0 NMtDT0=    0
         I1Cent=           4 NGrid=           0.
 Petite list used in FoFCou.
 Requested convergence on RMS density matrix=1.00D-08 within 128 cycles.
 Requested convergence on MAX density matrix=1.00D-06.
 Requested convergence on             energy=1.00D-06.
 No special actions if energy rises.
