 Entering Gaussian System, Link 0=g09
 Input=Ethyne_M062X_3-21G.com
 Output=Ethyne_M062X_3-21G.log
 Initial command:
 /sw/contrib/gaussian/g09/E01/g09/l1.exe "/scr/Gau-2893.inp" -scrdir="/scr/"
 Entering Link 1 = /sw/contrib/gaussian/g09/E01/g09/l1.exe PID=      2894.
  
 Copyright (c) 1988,1990,1992,1993,1995,1998,2003,2009,2015,
            Gaussian, Inc.  All Rights Reserved.
  
 This is part of the Gaussian(R) 09 program.  It is based on
 the Gaussian(R) 03 system (copyright 2003, Gaussian, Inc.),
 the Gaussian(R) 98 system (copyright 1998, Gaussian, Inc.),
 the Gaussian(R) 94 system (copyright 1995, Gaussian, Inc.),
 the Gaussian 92(TM) system (copyright 1992, Gaussian, Inc.),
 the Gaussian 90(TM) system (copyright 1990, Gaussian, Inc.),
 the Gaussian 88(TM) system (copyright 1988, Gaussian, Inc.),
 the Gaussian 86(TM) system (copyright 1986, Carnegie Mellon
 University), and the Gaussian 82(TM) system (copyright 1983,
 Carnegie Mellon University). Gaussian is a federally registered
 trademark of Gaussian, Inc.
  
 This software contains proprietary and confidential information,
 including trade secrets, belonging to Gaussian, Inc.
  
 This software is provided under written license and may be
 used, copied, transmitted, or stored only in accord with that
 written license.
  
 The following legend is applicable only to US Government
 contracts under FAR:
  
                    RESTRICTED RIGHTS LEGEND
  
 Use, reproduction and disclosure by the US Government is
 subject to restrictions as set forth in subparagraphs (a)
 and (c) of the Commercial Computer Software - Restricted
 Rights clause in FAR 52.227-19.
  
 Gaussian, Inc.
 340 Quinnipiac St., Bldg. 40, Wallingford CT 06492
  
  
 ---------------------------------------------------------------
 Warning -- This program may not be used in any manner that
 competes with the business of Gaussian, Inc. or will provide
 assistance to any competitor of Gaussian, Inc.  The licensee
 of this program is prohibited from giving any competitor of
 Gaussian, Inc. access to this program.  By using this program,
 the user acknowledges that Gaussian, Inc. is engaged in the
 business of creating and licensing software in the field of
 computational chemistry and represents and warrants to the
 licensee that it is not a competitor of Gaussian, Inc. and that
 it will not use this program in any manner prohibited above.
 ---------------------------------------------------------------
  

 Cite this work as:
 Gaussian 09, Revision E.01,
 M. J. Frisch, G. W. Trucks, H. B. Schlegel, G. E. Scuseria, 
 M. A. Robb, J. R. Cheeseman, G. Scalmani, V. Barone, B. Mennucci, 
 G. A. Petersson, H. Nakatsuji, M. Caricato, X. Li, H. P. Hratchian, 
 A. F. Izmaylov, J. Bloino, G. Zheng, J. L. Sonnenberg, M. Hada, 
 M. Ehara, K. Toyota, R. Fukuda, J. Hasegawa, M. Ishida, T. Nakajima, 
 Y. Honda, O. Kitao, H. Nakai, T. Vreven, J. A. Montgomery, Jr., 
 J. E. Peralta, F. Ogliaro, M. Bearpark, J. J. Heyd, E. Brothers, 
 K. N. Kudin, V. N. Staroverov, T. Keith, R. Kobayashi, J. Normand, 
 K. Raghavachari, A. Rendell, J. C. Burant, S. S. Iyengar, J. Tomasi, 
 M. Cossi, N. Rega, J. M. Millam, M. Klene, J. E. Knox, J. B. Cross, 
 V. Bakken, C. Adamo, J. Jaramillo, R. Gomperts, R. E. Stratmann, 
 O. Yazyev, A. J. Austin, R. Cammi, C. Pomelli, J. W. Ochterski, 
 R. L. Martin, K. Morokuma, V. G. Zakrzewski, G. A. Voth, 
 P. Salvador, J. J. Dannenberg, S. Dapprich, A. D. Daniels, 
 O. Farkas, J. B. Foresman, J. V. Ortiz, J. Cioslowski, 
 and D. J. Fox, Gaussian, Inc., Wallingford CT, 2013.
 
 ******************************************
 Gaussian 09:  ES64L-G09RevE.01 30-Nov-2015
                21-Feb-2017 
 ******************************************
 %NProcShared=8
 Will use up to    8 processors via shared memory.
 ------------------
 #n M062X/3-21G Opt
 ------------------
 1/14=-1,18=20,19=15,26=3,38=1/1,3;
 2/9=110,12=2,17=6,18=5,40=1/2;
 3/5=5,11=2,16=1,25=1,30=1,71=1,74=-55/1,2,3;
 4//1;
 5/5=2,38=5/2;
 6/7=2,8=2,9=2,10=2,28=1/1;
 7//1,2,3,16;
 1/14=-1,18=20,19=15,26=3/3(2);
 2/9=110/2;
 99//99;
 2/9=110/2;
 3/5=5,11=2,16=1,25=1,30=1,71=1,74=-55/1,2,3;
 4/5=5,16=3,69=1/1;
 5/5=2,38=5/2;
 7//1,2,3,16;
 1/14=-1,18=20,19=15,26=3/3(-5);
 2/9=110/2;
 6/7=2,8=2,9=2,10=2,19=2,28=1/1;
 99/9=1/99;
 ------------------
 Ethyne M062X 3-21G
 ------------------
 Symbolic Z-matrix:
 Charge =  0 Multiplicity = 1
 C                    -8.44511   3.24911   0. 
 C                    -7.23998   3.27154   0. 
 H                    -9.50331   3.22942   0. 
 H                    -6.18178   3.29124   0. 
 

 GradGradGradGradGradGradGradGradGradGradGradGradGradGradGradGradGradGrad
 Berny optimization.
 Initialization pass.
                           ----------------------------
                           !    Initial Parameters    !
                           ! (Angstroms and Degrees)  !
 --------------------------                            --------------------------
 ! Name  Definition              Value          Derivative Info.                !
 --------------------------------------------------------------------------------
 ! R1    R(1,2)                  1.2053         estimate D2E/DX2                !
 ! R2    R(1,3)                  1.0584         estimate D2E/DX2                !
 ! R3    R(2,4)                  1.0584         estimate D2E/DX2                !
 ! A1    L(2,1,3,-3,-1)        180.0003         estimate D2E/DX2                !
 ! A2    L(1,2,4,-3,-1)        179.9997         estimate D2E/DX2                !
 ! A3    L(2,1,3,-2,-2)        180.0            estimate D2E/DX2                !
 ! A4    L(1,2,4,-2,-2)        180.0            estimate D2E/DX2                !
 --------------------------------------------------------------------------------
 Trust Radius=3.00D-01 FncErr=1.00D-07 GrdErr=1.00D-06
 Number of steps in this run=     20 maximum allowed number of steps=    100.
 GradGradGradGradGradGradGradGradGradGradGradGradGradGradGradGradGradGrad

                          Input orientation:                          
 ---------------------------------------------------------------------
 Center     Atomic      Atomic             Coordinates (Angstroms)
 Number     Number       Type             X           Y           Z
 ---------------------------------------------------------------------
      1          6           0       -8.445110    3.249110    0.000000
      2          6           0       -7.239980    3.271540    0.000000
      3          1           0       -9.503310    3.229420    0.000000
      4          1           0       -6.181780    3.291240    0.000000
 ---------------------------------------------------------------------
                    Distance matrix (angstroms):
                    1          2          3          4
     1  C    0.000000
     2  C    1.205339   0.000000
     3  H    1.058383   2.263722   0.000000
     4  H    2.263722   1.058383   3.322105   0.000000
 Stoichiometry    C2H2
 Framework group  D*H[C*(C.C),X(H2)]
 NUMDOF-- UNRECOGNIZED SYMMETRIC SUBSPACE, ICHAR= X   "
 Deg. of freedom    -1
 Full point group                         NOp   0
 Largest Abelian subgroup         D2H     NOp   8
 Largest concise Abelian subgroup C2      NOp   2
                         Standard orientation:                         
 ---------------------------------------------------------------------
 Center     Atomic      Atomic             Coordinates (Angstroms)
 Number     Number       Type             X           Y           Z
 ---------------------------------------------------------------------
      1          6           0        0.000000    0.000000   -0.602669
      2          6           0        0.000000    0.000000    0.602669
      3          1           0        0.000000    0.000000   -1.661053
      4          1           0        0.000000    0.000000    1.661053
 ---------------------------------------------------------------------
 Rotational constants (GHZ):      0.0000000     35.3946027     35.3946027
 Standard basis: 3-21G (6D, 7F)
 There are     7 symmetry adapted cartesian basis functions of AG  symmetry.
 There are     0 symmetry adapted cartesian basis functions of B1G symmetry.
 There are     2 symmetry adapted cartesian basis functions of B2G symmetry.
 There are     2 symmetry adapted cartesian basis functions of B3G symmetry.
 There are     0 symmetry adapted cartesian basis functions of AU  symmetry.
 There are     7 symmetry adapted cartesian basis functions of B1U symmetry.
 There are     2 symmetry adapted cartesian basis functions of B2U symmetry.
 There are     2 symmetry adapted cartesian basis functions of B3U symmetry.
 There are     7 symmetry adapted basis functions of AG  symmetry.
 There are     0 symmetry adapted basis functions of B1G symmetry.
 There are     2 symmetry adapted basis functions of B2G symmetry.
 There are     2 symmetry adapted basis functions of B3G symmetry.
 There are     0 symmetry adapted basis functions of AU  symmetry.
 There are     7 symmetry adapted basis functions of B1U symmetry.
 There are     2 symmetry adapted basis functions of B2U symmetry.
 There are     2 symmetry adapted basis functions of B3U symmetry.
    22 basis functions,    36 primitive gaussians,    22 cartesian basis functions
     7 alpha electrons        7 beta electrons
       nuclear repulsion energy        24.7692980314 Hartrees.
 NAtoms=    4 NActive=    4 NUniq=    2 SFac= 4.00D+00 NAtFMM=   60 NAOKFM=F Big=F
 Integral buffers will be    131072 words long.
 Raffenetti 2 integral format.
 Two-electron integral symmetry is turned on.
 One-electron integrals computed using PRISM.
 NBasis=    22 RedAO= T EigKep=  3.31D-03  NBF=     7     0     2     2     0     7     2     2
 NBsUse=    22 1.00D-06 EigRej= -1.00D+00 NBFU=     7     0     2     2     0     7     2     2
 ExpMin= 1.83D-01 ExpMax= 1.72D+02 ExpMxC= 1.72D+02 IAcc=1 IRadAn=         1 AccDes= 0.00D+00
 Harris functional with IExCor= 1009 and IRadAn=       1 diagonalized for initial guess.
 HarFok:  IExCor= 1009 AccDes= 0.00D+00 IRadAn=         1 IDoV= 1 UseB2=F ITyADJ=14
 ICtDFT=  3500011 ScaDFX=  1.000000  1.000000  1.000000  1.000000
 FoFCou: FMM=F IPFlag=           0 FMFlag=      100000 FMFlg1=           0
         NFxFlg=           0 DoJE=T BraDBF=F KetDBF=T FulRan=T
         wScrn=  0.000000 ICntrl=     500 IOpCl=  0 I1Cent=   200000004 NGrid=           0
         NMat0=    1 NMatS0=      1 NMatT0=    0 NMatD0=    1 NMtDS0=    0 NMtDT0=    0
 Petite list used in FoFCou.
 Initial guess orbital symmetries:
       Occupied  (SGU) (SGG) (SGG) (SGU) (SGG) (PIU) (PIU)
       Virtual   (PIG) (PIG) (SGU) (SGG) (SGU) (PIU) (PIU) (SGG)
                 (PIG) (PIG) (SGU) (SGG) (SGG) (SGU) (SGU)
 The electronic state of the initial guess is 1-SGG.
 Keep R1 ints in memory in symmetry-blocked form, NReq=914525.
 Requested convergence on RMS density matrix=1.00D-08 within 128 cycles.
 Requested convergence on MAX density matrix=1.00D-06.
 Requested convergence on             energy=1.00D-06.
 No special actions if energy rises.
 Integral accuracy reduced to 1.0D-05 until final iterations.
 Initial convergence to 1.0D-05 achieved.  Increase integral accuracy.
 SCF Done:  E(RM062X) =  -76.8672551411     A.U. after   11 cycles
            NFock= 11  Conv=0.10D-08     -V/T= 2.0096

 **********************************************************************

            Population analysis using the SCF density.

 **********************************************************************

 Orbital symmetries:
       Occupied  (SGG) (SGU) (SGG) (SGU) (SGG) (PIU) (PIU)
       Virtual   (PIG) (PIG) (SGU) (SGG) (SGU) (SGG) (PIU) (PIU)
                 (PIG) (PIG) (SGU) (SGG) (SGG) (SGU) (SGU)
 The electronic state is 1-SGG.
 Alpha  occ. eigenvalues --  -10.49854 -10.49789  -0.84959  -0.63976  -0.56512
 Alpha  occ. eigenvalues --   -0.35095  -0.35095
 Alpha virt. eigenvalues --    0.10457   0.10457   0.17565   0.22719   0.53798
 Alpha virt. eigenvalues --    0.76316   0.77134   0.77134   0.88178   0.88178
 Alpha virt. eigenvalues --    1.07357   1.12614   1.30912   1.37983   2.01538
          Condensed to atoms (all electrons):
               1          2          3          4
     1  C    4.920988   1.000703   0.368356  -0.020555
     2  C    1.000703   4.920988  -0.020555   0.368356
     3  H    0.368356  -0.020555   0.382083   0.000624
     4  H   -0.020555   0.368356   0.000624   0.382083
 Mulliken charges:
               1
     1  C   -0.269492
     2  C   -0.269492
     3  H    0.269492
     4  H    0.269492
 Sum of Mulliken charges =   0.00000
 Mulliken charges with hydrogens summed into heavy atoms:
               1
     1  C    0.000000
     2  C    0.000000
 Electronic spatial extent (au):  <R**2>=             60.3151
 Charge=              0.0000 electrons
 Dipole moment (field-independent basis, Debye):
    X=              0.0000    Y=              0.0000    Z=              0.0000  Tot=              0.0000
 Quadrupole moment (field-independent basis, Debye-Ang):
   XX=            -13.3747   YY=            -13.3747   ZZ=             -6.9366
   XY=              0.0000   XZ=              0.0000   YZ=              0.0000
 Traceless Quadrupole moment (field-independent basis, Debye-Ang):
   XX=             -2.1460   YY=             -2.1460   ZZ=              4.2921
   XY=              0.0000   XZ=              0.0000   YZ=              0.0000
 Octapole moment (field-independent basis, Debye-Ang**2):
  XXX=              0.0000  YYY=              0.0000  ZZZ=              0.0000  XYY=              0.0000
  XXY=              0.0000  XXZ=              0.0000  XZZ=              0.0000  YZZ=              0.0000
  YYZ=              0.0000  XYZ=              0.0000
 Hexadecapole moment (field-independent basis, Debye-Ang**3):
 XXXX=            -13.7550 YYYY=            -13.7550 ZZZZ=            -35.8364 XXXY=              0.0000
 XXXZ=              0.0000 YYYX=              0.0000 YYYZ=              0.0000 ZZZX=              0.0000
 ZZZY=              0.0000 XXYY=             -4.5850 XXZZ=            -11.6612 YYZZ=            -11.6612
 XXYZ=              0.0000 YYXZ=              0.0000 ZZXY=              0.0000
 N-N= 2.476929803136D+01 E-N=-2.273823736981D+02  KE= 7.613285166559D+01
 Symmetry AG   KE= 3.765127117413D+01
 Symmetry B1G  KE= 0.000000000000D+00
 Symmetry B2G  KE= 6.420781148683D-33
 Symmetry B3G  KE= 9.362924544191D-32
 Symmetry AU   KE= 0.000000000000D+00
 Symmetry B1U  KE= 3.412538098746D+01
 Symmetry B2U  KE= 2.178099751996D+00
 Symmetry B3U  KE= 2.178099751996D+00
 Calling FoFJK, ICntrl=      2127 FMM=F ISym2X=1 I1Cent= 0 IOpClX= 0 NMat=1 NMatS=1 NMatT=0.
 ***** Axes restored to original set *****
 -------------------------------------------------------------------
 Center     Atomic                   Forces (Hartrees/Bohr)
 Number     Number              X              Y              Z
 -------------------------------------------------------------------
      1        6           0.010122612    0.000188402    0.000000000
      2        6          -0.010122612   -0.000188402    0.000000000
      3        1          -0.003107349   -0.000057834    0.000000000
      4        1           0.003107349    0.000057834    0.000000000
 -------------------------------------------------------------------
 Cartesian Forces:  Max     0.010122612 RMS     0.004323612

 GradGradGradGradGradGradGradGradGradGradGradGradGradGradGradGradGradGrad
 Berny optimization.
 FormGI is forming the generalized inverse of G from B-inverse, IUseBI=4.
 Internal  Forces:  Max     0.007016478 RMS     0.003129329
 Search for a local minimum.
 Step number   1 out of a maximum of   20
 All quantities printed in internal units (Hartrees-Bohrs-Radians)
 Mixed Optimization -- RFO/linear search
 Second derivative matrix not updated -- first step.
 The second derivative matrix:
                          R1        R2        R3        A1        A2
           R1           1.02186
           R2           0.00000   0.38738
           R3           0.00000   0.00000   0.38738
           A1           0.00000   0.00000   0.00000   0.00653
           A2           0.00000   0.00000   0.00000   0.00000   0.00653
           A3           0.00000   0.00000   0.00000   0.00000   0.00000
           A4           0.00000   0.00000   0.00000   0.00000   0.00000
                          A3        A4
           A3           0.00653
           A4           0.00000   0.00653
 ITU=  0
     Eigenvalues ---    0.00653   0.00653   0.00653   0.00653   0.38738
     Eigenvalues ---    0.38738   1.02186
 RFO step:  Lambda=-9.80291948D-05 EMin= 6.53060099D-03
 Linear search not attempted -- first point.
 Iteration  1 RMS(Cart)=  0.00306288 RMS(Int)=  0.00000000
 Iteration  2 RMS(Cart)=  0.00000000 RMS(Int)=  0.00000000
 ClnCor:  largest displacement from symmetrization is 7.28D-13 for atom     1.
 Variable       Old X    -DE/DX   Delta X   Delta X   Delta X     New X
                                 (Linear)    (Quad)   (Total)
    R1        2.27776  -0.00702   0.00000  -0.00687  -0.00687   2.27089
    R2        2.00005   0.00311   0.00000   0.00802   0.00802   2.00808
    R3        2.00005   0.00311   0.00000   0.00802   0.00802   2.00808
    A1        3.14159   0.00000   0.00000   0.00000   0.00000   3.14159
    A2        3.14159   0.00000   0.00000   0.00000   0.00000   3.14159
    A3        3.14159   0.00000   0.00000   0.00000   0.00000   3.14159
    A4        3.14159   0.00000   0.00000   0.00000   0.00000   3.14159
         Item               Value     Threshold  Converged?
 Maximum Force            0.007016     0.000450     NO 
 RMS     Force            0.003129     0.000300     NO 
 Maximum Displacement     0.004587     0.001800     NO 
 RMS     Displacement     0.003063     0.001200     NO 
 Predicted change in Energy=-4.902322D-05
 GradGradGradGradGradGradGradGradGradGradGradGradGradGradGradGradGradGrad

                          Input orientation:                          
 ---------------------------------------------------------------------
 Center     Atomic      Atomic             Coordinates (Angstroms)
 Number     Number       Type             X           Y           Z
 ---------------------------------------------------------------------
      1          6           0       -8.443294    3.249145    0.000000
      2          6           0       -7.241796    3.271507    0.000000
      3          1           0       -9.505737    3.229370    0.000000
      4          1           0       -6.179353    3.291281    0.000000
 ---------------------------------------------------------------------
                    Distance matrix (angstroms):
                    1          2          3          4
     1  C    0.000000
     2  C    1.201706   0.000000
     3  H    1.062628   2.264333   0.000000
     4  H    2.264333   1.062628   3.326961   0.000000
 Stoichiometry    C2H2
 Framework group  D*H[C*(HC.CH)]
 Deg. of freedom     2
 Full point group                 D*H     NOp   8
 Omega: Change in point group or standard orientation.

 Old FWG=D*H  [C*(C1.C1),X(H2)]
 New FWG=D*H  [C*(H1C1.C1H1)]
 Largest Abelian subgroup         D2H     NOp   8
 Largest concise Abelian subgroup C2      NOp   2
                         Standard orientation:                         
 ---------------------------------------------------------------------
 Center     Atomic      Atomic             Coordinates (Angstroms)
 Number     Number       Type             X           Y           Z
 ---------------------------------------------------------------------
      1          6           0        0.000000    0.000000   -0.600853
      2          6           0        0.000000    0.000000    0.600853
      3          1           0        0.000000    0.000000   -1.663480
      4          1           0        0.000000    0.000000    1.663480
 ---------------------------------------------------------------------
 Rotational constants (GHZ):      0.0000000     35.4845722     35.4845722
 Standard basis: 3-21G (6D, 7F)
 There are     7 symmetry adapted cartesian basis functions of AG  symmetry.
 There are     0 symmetry adapted cartesian basis functions of B1G symmetry.
 There are     2 symmetry adapted cartesian basis functions of B2G symmetry.
 There are     2 symmetry adapted cartesian basis functions of B3G symmetry.
 There are     0 symmetry adapted cartesian basis functions of AU  symmetry.
 There are     7 symmetry adapted cartesian basis functions of B1U symmetry.
 There are     2 symmetry adapted cartesian basis functions of B2U symmetry.
 There are     2 symmetry adapted cartesian basis functions of B3U symmetry.
 There are     7 symmetry adapted basis functions of AG  symmetry.
 There are     0 symmetry adapted basis functions of B1G symmetry.
 There are     2 symmetry adapted basis functions of B2G symmetry.
 There are     2 symmetry adapted basis functions of B3G symmetry.
 There are     0 symmetry adapted basis functions of AU  symmetry.
 There are     7 symmetry adapted basis functions of B1U symmetry.
 There are     2 symmetry adapted basis functions of B2U symmetry.
 There are     2 symmetry adapted basis functions of B3U symmetry.
    22 basis functions,    36 primitive gaussians,    22 cartesian basis functions
     7 alpha electrons        7 beta electrons
       nuclear repulsion energy        24.7921274455 Hartrees.
 NAtoms=    4 NActive=    4 NUniq=    2 SFac= 4.00D+00 NAtFMM=   60 NAOKFM=F Big=F
 Integral buffers will be    131072 words long.
 Raffenetti 2 integral format.
 Two-electron integral symmetry is turned on.
 One-electron integrals computed using PRISM.
 NBasis=    22 RedAO= T EigKep=  3.26D-03  NBF=     7     0     2     2     0     7     2     2
 NBsUse=    22 1.00D-06 EigRej= -1.00D+00 NBFU=     7     0     2     2     0     7     2     2
 Initial guess from the checkpoint file:  "/scr/Gau-2894.chk"
 B after Tr=     0.000000    0.000000    0.000000
         Rot=    1.000000    0.000000    0.000000    0.000000 Ang=   0.00 deg.
 Initial guess orbital symmetries:
       Occupied  (SGG) (SGU) (SGG) (SGU) (SGG) (PIU) (PIU)
       Virtual   (SGG) (SGG) (SGG) (SGG) (PIG) (PIG) (PIG) (PIG)
                 (SGU) (SGU) (SGU) (SGU) (SGU) (PIU) (PIU)
 Keep R1 ints in memory in symmetry-blocked form, NReq=914525.
 Requested convergence on RMS density matrix=1.00D-08 within 128 cycles.
 Requested convergence on MAX density matrix=1.00D-06.
 Requested convergence on             energy=1.00D-06.
 No special actions if energy rises.
 SCF Done:  E(RM062X) =  -76.8672962319     A.U. after    7 cycles
            NFock=  7  Conv=0.81D-09     -V/T= 2.0096
 Calling FoFJK, ICntrl=      2127 FMM=F ISym2X=1 I1Cent= 0 IOpClX= 0 NMat=1 NMatS=1 NMatT=0.
 ***** Axes restored to original set *****
 -------------------------------------------------------------------
 Center     Atomic                   Forces (Hartrees/Bohr)
 Number     Number              X              Y              Z
 -------------------------------------------------------------------
      1        6          -0.001690785   -0.000031469    0.000000000
      2        6           0.001690785    0.000031469    0.000000000
      3        1           0.000453494    0.000008440    0.000000000
      4        1          -0.000453494   -0.000008440    0.000000000
 -------------------------------------------------------------------
 Cartesian Forces:  Max     0.001690785 RMS     0.000714781

 GradGradGradGradGradGradGradGradGradGradGradGradGradGradGradGradGradGrad
 Berny optimization.
 Using GEDIIS/GDIIS optimizer.
 Internal  Forces:  Max     0.001237505 RMS     0.000526834
 Search for a local minimum.
 Step number   2 out of a maximum of   20
 All quantities printed in internal units (Hartrees-Bohrs-Radians)
 Mixed Optimization -- En-DIIS/RFO-DIIS
 Update second derivatives using D2CorX and points    1    2
 DE= -4.11D-05 DEPred=-4.90D-05 R= 8.38D-01
 TightC=F SS=  1.41D+00  RLast= 1.33D-02 DXNew= 5.0454D-01 3.9778D-02
 Trust test= 8.38D-01 RLast= 1.33D-02 DXMaxT set to 3.00D-01
 The second derivative matrix:
                          R1        R2        R3        A1        A2
           R1           1.11831
           R2          -0.03590   0.40034
           R3          -0.03590   0.01296   0.40034
           A1           0.00000   0.00000   0.00000   0.00653
           A2           0.00000   0.00000   0.00000   0.00000   0.00653
           A3           0.00000   0.00000   0.00000   0.00000   0.00000
           A4           0.00000   0.00000   0.00000   0.00000   0.00000
                          A3        A4
           A3           0.00653
           A4           0.00000   0.00653
 ITU=  1  0
 Use linear search instead of GDIIS.
     Eigenvalues ---    0.00653   0.00653   0.00653   0.00653   0.38738
     Eigenvalues ---    0.40966   1.12195
 RFO step:  Lambda=-1.65129842D-08 EMin= 6.53060099D-03
 Quartic linear search produced a step of -0.13883.
 Iteration  1 RMS(Cart)=  0.00038189 RMS(Int)=  0.00000000
 Iteration  2 RMS(Cart)=  0.00000000 RMS(Int)=  0.00000001
 ClnCor:  largest displacement from symmetrization is 8.37D-13 for atom     1.
 Variable       Old X    -DE/DX   Delta X   Delta X   Delta X     New X
                                 (Linear)    (Quad)   (Total)
    R1        2.27089   0.00124   0.00095   0.00009   0.00104   2.27194
    R2        2.00808  -0.00045  -0.00111   0.00010  -0.00101   2.00707
    R3        2.00808  -0.00045  -0.00111   0.00010  -0.00101   2.00707
    A1        3.14159   0.00000   0.00000   0.00000   0.00000   3.14159
    A2        3.14159   0.00000   0.00000   0.00000   0.00000   3.14159
    A3        3.14159   0.00000   0.00000   0.00000   0.00000   3.14159
    A4        3.14159   0.00000   0.00000   0.00000   0.00000   3.14159
         Item               Value     Threshold  Converged?
 Maximum Force            0.001238     0.000450     NO 
 RMS     Force            0.000527     0.000300     NO 
 Maximum Displacement     0.000521     0.001800     YES
 RMS     Displacement     0.000382     0.001200     YES
 Predicted change in Energy=-1.101417D-06
 GradGradGradGradGradGradGradGradGradGradGradGradGradGradGradGradGradGrad

                          Input orientation:                          
 ---------------------------------------------------------------------
 Center     Atomic      Atomic             Coordinates (Angstroms)
 Number     Number       Type             X           Y           Z
 ---------------------------------------------------------------------
      1          6           0       -8.443570    3.249139    0.000000
      2          6           0       -7.241520    3.271512    0.000000
      3          1           0       -9.505479    3.229375    0.000000
      4          1           0       -6.179611    3.291276    0.000000
 ---------------------------------------------------------------------
                    Distance matrix (angstroms):
                    1          2          3          4
     1  C    0.000000
     2  C    1.202257   0.000000
     3  H    1.062093   2.264351   0.000000
     4  H    2.264351   1.062093   3.326444   0.000000
 Stoichiometry    C2H2
 Framework group  D*H[C*(HC.CH)]
 Deg. of freedom     2
 Full point group                 D*H     NOp   8
 Largest Abelian subgroup         D2H     NOp   8
 Largest concise Abelian subgroup C2      NOp   2
                         Standard orientation:                         
 ---------------------------------------------------------------------
 Center     Atomic      Atomic             Coordinates (Angstroms)
 Number     Number       Type             X           Y           Z
 ---------------------------------------------------------------------
      1          6           0        0.000000    0.000000   -0.601129
      2          6           0        0.000000    0.000000    0.601129
      3          1           0        0.000000    0.000000   -1.663222
      4          1           0        0.000000    0.000000    1.663222
 ---------------------------------------------------------------------
 Rotational constants (GHZ):      0.0000000     35.4690692     35.4690692
 Standard basis: 3-21G (6D, 7F)
 There are     7 symmetry adapted cartesian basis functions of AG  symmetry.
 There are     0 symmetry adapted cartesian basis functions of B1G symmetry.
 There are     2 symmetry adapted cartesian basis functions of B2G symmetry.
 There are     2 symmetry adapted cartesian basis functions of B3G symmetry.
 There are     0 symmetry adapted cartesian basis functions of AU  symmetry.
 There are     7 symmetry adapted cartesian basis functions of B1U symmetry.
 There are     2 symmetry adapted cartesian basis functions of B2U symmetry.
 There are     2 symmetry adapted cartesian basis functions of B3U symmetry.
 There are     7 symmetry adapted basis functions of AG  symmetry.
 There are     0 symmetry adapted basis functions of B1G symmetry.
 There are     2 symmetry adapted basis functions of B2G symmetry.
 There are     2 symmetry adapted basis functions of B3G symmetry.
 There are     0 symmetry adapted basis functions of AU  symmetry.
 There are     7 symmetry adapted basis functions of B1U symmetry.
 There are     2 symmetry adapted basis functions of B2U symmetry.
 There are     2 symmetry adapted basis functions of B3U symmetry.
    22 basis functions,    36 primitive gaussians,    22 cartesian basis functions
     7 alpha electrons        7 beta electrons
       nuclear repulsion energy        24.7878619431 Hartrees.
 NAtoms=    4 NActive=    4 NUniq=    2 SFac= 4.00D+00 NAtFMM=   60 NAOKFM=F Big=F
 Integral buffers will be    131072 words long.
 Raffenetti 2 integral format.
 Two-electron integral symmetry is turned on.
 One-electron integrals computed using PRISM.
 NBasis=    22 RedAO= T EigKep=  3.27D-03  NBF=     7     0     2     2     0     7     2     2
 NBsUse=    22 1.00D-06 EigRej= -1.00D+00 NBFU=     7     0     2     2     0     7     2     2
 Initial guess from the checkpoint file:  "/scr/Gau-2894.chk"
 B after Tr=     0.000000    0.000000    0.000000
         Rot=    1.000000    0.000000    0.000000    0.000000 Ang=   0.00 deg.
 Initial guess orbital symmetries:
       Occupied  (SGG) (SGU) (SGG) (SGU) (SGG) (PIU) (PIU)
       Virtual   (SGG) (SGG) (SGG) (SGG) (PIG) (PIG) (PIG) (PIG)
                 (SGU) (SGU) (SGU) (SGU) (SGU) (PIU) (PIU)
 Keep R1 ints in memory in symmetry-blocked form, NReq=914525.
 Requested convergence on RMS density matrix=1.00D-08 within 128 cycles.
 Requested convergence on MAX density matrix=1.00D-06.
 Requested convergence on             energy=1.00D-06.
 No special actions if energy rises.
 SCF Done:  E(RM062X) =  -76.8672973320     A.U. after    6 cycles
            NFock=  6  Conv=0.13D-08     -V/T= 2.0096
 Calling FoFJK, ICntrl=      2127 FMM=F ISym2X=1 I1Cent= 0 IOpClX= 0 NMat=1 NMatS=1 NMatT=0.
 ***** Axes restored to original set *****
 -------------------------------------------------------------------
 Center     Atomic                   Forces (Hartrees/Bohr)
 Number     Number              X              Y              Z
 -------------------------------------------------------------------
      1        6           0.000015158    0.000000282    0.000000000
      2        6          -0.000015158   -0.000000282    0.000000000
      3        1           0.000009826    0.000000183    0.000000000
      4        1          -0.000009826   -0.000000183    0.000000000
 -------------------------------------------------------------------
 Cartesian Forces:  Max     0.000015158 RMS     0.000007376

 GradGradGradGradGradGradGradGradGradGradGradGradGradGradGradGradGradGrad
 Berny optimization.
 Using GEDIIS/GDIIS optimizer.
 Internal  Forces:  Max     0.000024989 RMS     0.000010808
 Search for a local minimum.
 Step number   3 out of a maximum of   20
 All quantities printed in internal units (Hartrees-Bohrs-Radians)
 Mixed Optimization -- En-DIIS/RFO-DIIS
 Swapping is turned off.
 Update second derivatives using D2CorX and points    1    2    3
 DE= -1.10D-06 DEPred=-1.10D-06 R= 9.99D-01
 TightC=F SS=  1.41D+00  RLast= 1.77D-03 DXNew= 5.0454D-01 5.3048D-03
 Trust test= 9.99D-01 RLast= 1.77D-03 DXMaxT set to 3.00D-01
 The second derivative matrix:
                          R1        R2        R3        A1        A2
           R1           1.14487
           R2          -0.03405   0.39582
           R3          -0.03405   0.00844   0.39582
           A1           0.00000   0.00000   0.00000   0.00653
           A2           0.00000   0.00000   0.00000   0.00000   0.00653
           A3           0.00000   0.00000   0.00000   0.00000   0.00000
           A4           0.00000   0.00000   0.00000   0.00000   0.00000
                          A3        A4
           A3           0.00653
           A4           0.00000   0.00653
 ITU=  1  1  0
     Eigenvalues ---    0.00653   0.00653   0.00653   0.00653   0.38738
     Eigenvalues ---    0.40115   1.14798
 En-DIIS/RFO-DIIS IScMMF=        0 using points:     3    2
 RFO step:  Lambda= 0.00000000D+00.
 DidBck=F Rises=F RFO-DIIS coefs:    0.99720    0.00280
 Iteration  1 RMS(Cart)=  0.00002124 RMS(Int)=  0.00000000
 Iteration  2 RMS(Cart)=  0.00000000 RMS(Int)=  0.00000000
 ClnCor:  largest displacement from symmetrization is 1.28D-12 for atom     1.
 Variable       Old X    -DE/DX   Delta X   Delta X   Delta X     New X
                                 (Linear)    (Quad)   (Total)
    R1        2.27194  -0.00002   0.00000  -0.00002  -0.00002   2.27191
    R2        2.00707  -0.00001   0.00000  -0.00003  -0.00003   2.00704
    R3        2.00707  -0.00001   0.00000  -0.00003  -0.00003   2.00704
    A1        3.14159   0.00000   0.00000   0.00000   0.00000   3.14159
    A2        3.14159   0.00000   0.00000   0.00000   0.00000   3.14159
    A3        3.14159   0.00000   0.00000   0.00000   0.00000   3.14159
    A4        3.14159   0.00000   0.00000   0.00000   0.00000   3.14159
         Item               Value     Threshold  Converged?
 Maximum Force            0.000025     0.000450     YES
 RMS     Force            0.000011     0.000300     YES
 Maximum Displacement     0.000038     0.001800     YES
 RMS     Displacement     0.000021     0.001200     YES
 Predicted change in Energy=-5.505339D-10
 Optimization completed.
    -- Stationary point found.
                           ----------------------------
                           !   Optimized Parameters   !
                           ! (Angstroms and Degrees)  !
 --------------------------                            --------------------------
 ! Name  Definition              Value          Derivative Info.                !
 --------------------------------------------------------------------------------
 ! R1    R(1,2)                  1.2023         -DE/DX =    0.0                 !
 ! R2    R(1,3)                  1.0621         -DE/DX =    0.0                 !
 ! R3    R(2,4)                  1.0621         -DE/DX =    0.0                 !
 ! A1    L(2,1,3,-3,-1)        180.0            -DE/DX =    0.0                 !
 ! A2    L(1,2,4,-3,-1)        180.0            -DE/DX =    0.0                 !
 ! A3    L(2,1,3,-2,-2)        180.0            -DE/DX =    0.0                 !
 ! A4    L(1,2,4,-2,-2)        180.0            -DE/DX =    0.0                 !
 --------------------------------------------------------------------------------
 GradGradGradGradGradGradGradGradGradGradGradGradGradGradGradGradGradGrad

                          Input orientation:                          
 ---------------------------------------------------------------------
 Center     Atomic      Atomic             Coordinates (Angstroms)
 Number     Number       Type             X           Y           Z
 ---------------------------------------------------------------------
      1          6           0       -8.443570    3.249139    0.000000
      2          6           0       -7.241520    3.271512    0.000000
      3          1           0       -9.505479    3.229375    0.000000
      4          1           0       -6.179611    3.291276    0.000000
 ---------------------------------------------------------------------
                    Distance matrix (angstroms):
                    1          2          3          4
     1  C    0.000000
     2  C    1.202257   0.000000
     3  H    1.062093   2.264351   0.000000
     4  H    2.264351   1.062093   3.326444   0.000000
 Stoichiometry    C2H2
 Framework group  D*H[C*(HC.CH)]
 Deg. of freedom     2
 Full point group                 D*H     NOp   8
 Largest Abelian subgroup         D2H     NOp   8
 Largest concise Abelian subgroup C2      NOp   2
                         Standard orientation:                         
 ---------------------------------------------------------------------
 Center     Atomic      Atomic             Coordinates (Angstroms)
 Number     Number       Type             X           Y           Z
 ---------------------------------------------------------------------
      1          6           0        0.000000    0.000000   -0.601129
      2          6           0        0.000000    0.000000    0.601129
      3          1           0        0.000000    0.000000   -1.663222
      4          1           0        0.000000    0.000000    1.663222
 ---------------------------------------------------------------------
 Rotational constants (GHZ):      0.0000000     35.4690692     35.4690692

 **********************************************************************

            Population analysis using the SCF density.

 **********************************************************************

 Orbital symmetries:
       Occupied  (SGG) (SGU) (SGG) (SGU) (SGG) (PIU) (PIU)
       Virtual   (PIG) (PIG) (SGU) (SGG) (SGU) (SGG) (PIU) (PIU)
                 (PIG) (PIG) (SGU) (SGG) (SGG) (SGU) (SGU)
 The electronic state is 1-SGG.
 Alpha  occ. eigenvalues --  -10.49810 -10.49738  -0.85020  -0.63813  -0.56414
 Alpha  occ. eigenvalues --   -0.35148  -0.35148
 Alpha virt. eigenvalues --    0.10563   0.10563   0.17477   0.22597   0.53986
 Alpha virt. eigenvalues --    0.76210   0.77089   0.77089   0.88253   0.88253
 Alpha virt. eigenvalues --    1.07397   1.12652   1.30598   1.38070   2.01716
          Condensed to atoms (all electrons):
               1          2          3          4
     1  C    4.918788   1.003423   0.367776  -0.020347
     2  C    1.003423   4.918788  -0.020347   0.367776
     3  H    0.367776  -0.020347   0.382307   0.000623
     4  H   -0.020347   0.367776   0.000623   0.382307
 Mulliken charges:
               1
     1  C   -0.269640
     2  C   -0.269640
     3  H    0.269640
     4  H    0.269640
 Sum of Mulliken charges =   0.00000
 Mulliken charges with hydrogens summed into heavy atoms:
               1
     1  C    0.000000
     2  C    0.000000
 Electronic spatial extent (au):  <R**2>=             60.2771
 Charge=              0.0000 electrons
 Dipole moment (field-independent basis, Debye):
    X=              0.0000    Y=              0.0000    Z=              0.0000  Tot=              0.0000
 Quadrupole moment (field-independent basis, Debye-Ang):
   XX=            -13.3723   YY=            -13.3723   ZZ=             -6.9278
   XY=              0.0000   XZ=              0.0000   YZ=              0.0000
 Traceless Quadrupole moment (field-independent basis, Debye-Ang):
   XX=             -2.1482   YY=             -2.1482   ZZ=              4.2963
   XY=              0.0000   XZ=              0.0000   YZ=              0.0000
 Octapole moment (field-independent basis, Debye-Ang**2):
  XXX=              0.0000  YYY=              0.0000  ZZZ=              0.0000  XYY=              0.0000
  XXY=              0.0000  XXZ=              0.0000  XZZ=              0.0000  YZZ=              0.0000
  YYZ=              0.0000  XYZ=              0.0000
 Hexadecapole moment (field-independent basis, Debye-Ang**3):
 XXXX=            -13.7464 YYYY=            -13.7464 ZZZZ=            -35.7259 XXXY=              0.0000
 XXXZ=              0.0000 YYYX=              0.0000 YYYZ=              0.0000 ZZZX=              0.0000
 ZZZY=              0.0000 XXYY=             -4.5821 XXZZ=            -11.6658 YYZZ=            -11.6658
 XXYZ=              0.0000 YYXZ=              0.0000 ZZXY=              0.0000
 N-N= 2.478786194312D+01 E-N=-2.274263361991D+02  KE= 7.613595721232D+01
 Symmetry AG   KE= 3.765564383203D+01
 Symmetry B1G  KE= 0.000000000000D+00
 Symmetry B2G  KE= 1.904646724748D-33
 Symmetry B3G  KE= 2.744276851801D-33
 Symmetry AU   KE= 0.000000000000D+00
 Symmetry B1U  KE= 3.411969637761D+01
 Symmetry B2U  KE= 2.180308501334D+00
 Symmetry B3U  KE= 2.180308501334D+00
 1\1\GINC-N0287\FOpt\RM062X\3-21G\C2H2\GDAVIDS3\21-Feb-2017\0\\#n M062X
 /3-21G Opt\\Ethyne M062X 3-21G\\0,1\C,-8.4435695645,3.2491394506,0.\C,
 -7.2415204355,3.271511978,0.\H,-9.5054788889,3.2293752039,0.\H,-6.1796
 111111,3.2912762247,0.\\Version=ES64L-G09RevE.01\State=1-SGG\HF=-76.86
 72973\RMSD=1.341e-09\RMSF=7.376e-06\Dipole=0.,0.,0.\Quadrupole=3.19255
 84,-1.5954496,-1.5971088,0.0891452,0.,0.\PG=D*H [C*(H1C1.C1H1)]\\@


 The cat could very well be man's best friend
 but would never stoop to admitting it.
                               -- Doug Larson
 Job cpu time:       0 days  0 hours  0 minutes 22.1 seconds.
 File lengths (MBytes):  RWF=      5 Int=      0 D2E=      0 Chk=      1 Scr=      1
 Normal termination of Gaussian 09 at Tue Feb 21 19:21:24 2017.
