 Entering Gaussian System, Link 0=g09
 Input=BMI_MTS_1.com
 Output=BMI_MTS_1.log
 Initial command:
 /gscratch/pfaendtner/codes/G09/g09/l1.exe /gscratch/pfaendtner/wesley/gaussian/Gau-30683.inp -scrdir=/gscratch/pfaendtner/wesley/gaussian/
 Entering Link 1 = /gscratch/pfaendtner/codes/G09/g09/l1.exe PID=     30695.
  
 Copyright (c) 1988,1990,1992,1993,1995,1998,2003,2009, Gaussian, Inc.
                  All Rights Reserved.
  
 This is part of the Gaussian(R) 09 program.  It is based on
 the Gaussian(R) 03 system (copyright 2003, Gaussian, Inc.),
 the Gaussian(R) 98 system (copyright 1998, Gaussian, Inc.),
 the Gaussian(R) 94 system (copyright 1995, Gaussian, Inc.),
 the Gaussian 92(TM) system (copyright 1992, Gaussian, Inc.),
 the Gaussian 90(TM) system (copyright 1990, Gaussian, Inc.),
 the Gaussian 88(TM) system (copyright 1988, Gaussian, Inc.),
 the Gaussian 86(TM) system (copyright 1986, Carnegie Mellon
 University), and the Gaussian 82(TM) system (copyright 1983,
 Carnegie Mellon University). Gaussian is a federally registered
 trademark of Gaussian, Inc.
  
 This software contains proprietary and confidential information,
 including trade secrets, belonging to Gaussian, Inc.
  
 This software is provided under written license and may be
 used, copied, transmitted, or stored only in accord with that
 written license.
  
 The following legend is applicable only to US Government
 contracts under FAR:
  
                    RESTRICTED RIGHTS LEGEND
  
 Use, reproduction and disclosure by the US Government is
 subject to restrictions as set forth in subparagraphs (a)
 and (c) of the Commercial Computer Software - Restricted
 Rights clause in FAR 52.227-19.
  
 Gaussian, Inc.
 340 Quinnipiac St., Bldg. 40, Wallingford CT 06492
  
  
 ---------------------------------------------------------------
 Warning -- This program may not be used in any manner that
 competes with the business of Gaussian, Inc. or will provide
 assistance to any competitor of Gaussian, Inc.  The licensee
 of this program is prohibited from giving any competitor of
 Gaussian, Inc. access to this program.  By using this program,
 the user acknowledges that Gaussian, Inc. is engaged in the
 business of creating and licensing software in the field of
 computational chemistry and represents and warrants to the
 licensee that it is not a competitor of Gaussian, Inc. and that
 it will not use this program in any manner prohibited above.
 ---------------------------------------------------------------
  

 Cite this work as:
 Gaussian 09, Revision A.02,
 M. J. Frisch, G. W. Trucks, H. B. Schlegel, G. E. Scuseria, 
 M. A. Robb, J. R. Cheeseman, G. Scalmani, V. Barone, B. Mennucci, 
 G. A. Petersson, H. Nakatsuji, M. Caricato, X. Li, H. P. Hratchian, 
 A. F. Izmaylov, J. Bloino, G. Zheng, J. L. Sonnenberg, M. Hada, 
 M. Ehara, K. Toyota, R. Fukuda, J. Hasegawa, M. Ishida, T. Nakajima, 
 Y. Honda, O. Kitao, H. Nakai, T. Vreven, J. A. Montgomery, Jr., 
 J. E. Peralta, F. Ogliaro, M. Bearpark, J. J. Heyd, E. Brothers, 
 K. N. Kudin, V. N. Staroverov, R. Kobayashi, J. Normand, 
 K. Raghavachari, A. Rendell, J. C. Burant, S. S. Iyengar, J. Tomasi, 
 M. Cossi, N. Rega, J. M. Millam, M. Klene, J. E. Knox, J. B. Cross, 
 V. Bakken, C. Adamo, J. Jaramillo, R. Gomperts, R. E. Stratmann, 
 O. Yazyev, A. J. Austin, R. Cammi, C. Pomelli, J. W. Ochterski, 
 R. L. Martin, K. Morokuma, V. G. Zakrzewski, G. A. Voth, 
 P. Salvador, J. J. Dannenberg, S. Dapprich, A. D. Daniels, 
 O. Farkas, J. B. Foresman, J. V. Ortiz, J. Cioslowski, 
 and D. J. Fox, Gaussian, Inc., Wallingford CT, 2009.
 
 ******************************************
 Gaussian 09:  EM64L-G09RevA.02 11-Jun-2009
                13-Mar-2017 
 ******************************************
 %chk=BMI_MTS_1.chk
 %nprocshared=2
 Will use up to    2 processors via shared memory.
 --------------------------------------
 # opt M062X/6-311+G* geom=connectivity
 --------------------------------------
 1/14=-1,18=20,19=15,26=3,38=1,57=2/1,3;
 2/9=110,12=2,17=6,18=5,40=1/2;
 3/5=4,6=6,7=11,11=2,16=1,25=1,30=1,71=1,74=-55/1,2,3;
 4//1;
 5/5=2,38=5/2;
 6/7=2,8=2,9=2,10=2,28=1/1;
 7//1,2,3,16;
 1/14=-1,18=20,19=15/3(2);
 2/9=110/2;
 99//99;
 2/9=110/2;
 3/5=4,6=6,7=11,11=2,16=1,25=1,30=1,71=1,74=-55/1,2,3;
 4/5=5,16=3/1;
 5/5=2,38=5/2;
 7//1,2,3,16;
 1/14=-1,18=20,19=15/3(-5);
 2/9=110/2;
 6/7=2,8=2,9=2,10=2,19=2,28=1/1;
 99/9=1/99;
 -------------------
 Title Card Required
 -------------------
 Symbolic Z-matrix:
 Charge =  0 Multiplicity = 1
 S(PDBName=S1,ResName=MTS,ResNum=1) -2.31443   0.7277    0.13526 
 O(PDBName=O1,ResName=MTS,ResNum=1) -2.33943  -0.73286   0.29604 
 O(PDBName=O2,ResName=MTS,ResNum=1) -1.66566   1.06928  -1.13838 
 O(PDBName=O3,ResName=MTS,ResNum=1) -3.69017   1.24448   0.13832 
 O(PDBName=O4,ResName=MTS,ResNum=1) -1.45993   1.41202   1.39638 
 C(PDBName=C1,ResName=MTS,ResNum=1) -0.12126   0.90916   1.3934 
 H(PDBName=H1,ResName=MTS,ResNum=1)  0.3511    1.15786   0.46608 
 H(PDBName=H2,ResName=MTS,ResNum=1)  0.42624   1.34762   2.20143 
 H(PDBName=H3,ResName=MTS,ResNum=1) -0.13946  -0.15426   1.51047 
 C                    -1.12041  -2.97501   0.32283 
 C                     0.13975  -2.93333   0.79161 
 C                    -0.92352  -1.24888   1.57011 
 N                    -1.75732  -1.91457   0.82427 
 H                    -1.53356  -3.71697  -0.32809 
 H                     0.91983  -3.63584   0.58456 
 H                    -1.15183  -0.3501    2.10394 
 N                     0.23178  -1.84879   1.56421 
 C                     1.43372  -1.40682   2.28594 
 H                     2.0263   -2.25859   2.54714 
 H                     2.00505  -0.75307   1.66057 
 H                     1.14469  -0.88708   3.17546 
 C                    -3.16191  -1.55879   0.57638 
 H                    -3.27488  -0.49597   0.62685 
 H                    -3.45082  -1.90246  -0.39487 
 C                    -4.05496  -2.22112   1.64191 
 H                    -3.94199  -3.28394   1.59144 
 H                    -3.76605  -1.87746   2.61316 
 C                    -5.52644  -1.8484    1.38222 
 H                    -5.63942  -0.78558   1.43269 
 H                    -5.81535  -2.19207   0.41097 
 C                    -6.4195   -2.51074   2.44775 
 H                    -6.13059  -2.16707   3.419 
 H                    -7.44189  -2.25177   2.26731 
 H                    -6.30652  -3.57356   2.39728 
 

 GradGradGradGradGradGradGradGradGradGradGradGradGradGradGradGradGradGrad
 Berny optimization.
 Initialization pass.
                           ----------------------------
                           !    Initial Parameters    !
                           ! (Angstroms and Degrees)  !
 --------------------------                            --------------------------
 ! Name  Definition              Value          Derivative Info.                !
 --------------------------------------------------------------------------------
 ! R1    R(1,2)                  1.4696         estimate D2E/DX2                !
 ! R2    R(1,3)                  1.4696         estimate D2E/DX2                !
 ! R3    R(1,4)                  1.4696         estimate D2E/DX2                !
 ! R4    R(1,5)                  1.67           estimate D2E/DX2                !
 ! R5    R(1,23)                 1.6314         estimate D2E/DX2                !
 ! R6    R(2,13)                 1.4193         estimate D2E/DX2                !
 ! R7    R(2,22)                 1.1988         estimate D2E/DX2                !
 ! R8    R(2,23)                 1.0201         estimate D2E/DX2                !
 ! R9    R(5,6)                  1.43           estimate D2E/DX2                !
 ! R10   R(6,7)                  1.07           estimate D2E/DX2                !
 ! R11   R(6,8)                  1.07           estimate D2E/DX2                !
 ! R12   R(6,9)                  1.07           estimate D2E/DX2                !
 ! R13   R(9,12)                 1.3478         estimate D2E/DX2                !
 ! R14   R(10,11)                1.3452         estimate D2E/DX2                !
 ! R15   R(10,13)                1.3348         estimate D2E/DX2                !
 ! R16   R(10,14)                1.07           estimate D2E/DX2                !
 ! R17   R(11,15)                1.07           estimate D2E/DX2                !
 ! R18   R(11,17)                1.3348         estimate D2E/DX2                !
 ! R19   R(12,13)                1.3018         estimate D2E/DX2                !
 ! R20   R(12,16)                1.07           estimate D2E/DX2                !
 ! R21   R(12,17)                1.3018         estimate D2E/DX2                !
 ! R22   R(13,22)                1.47           estimate D2E/DX2                !
 ! R23   R(17,18)                1.47           estimate D2E/DX2                !
 ! R24   R(18,19)                1.07           estimate D2E/DX2                !
 ! R25   R(18,20)                1.07           estimate D2E/DX2                !
 ! R26   R(18,21)                1.07           estimate D2E/DX2                !
 ! R27   R(22,23)                1.07           estimate D2E/DX2                !
 ! R28   R(22,24)                1.07           estimate D2E/DX2                !
 ! R29   R(22,25)                1.54           estimate D2E/DX2                !
 ! R30   R(25,26)                1.07           estimate D2E/DX2                !
 ! R31   R(25,27)                1.07           estimate D2E/DX2                !
 ! R32   R(25,28)                1.54           estimate D2E/DX2                !
 ! R33   R(28,29)                1.07           estimate D2E/DX2                !
 ! R34   R(28,30)                1.07           estimate D2E/DX2                !
 ! R35   R(28,31)                1.54           estimate D2E/DX2                !
 ! R36   R(31,32)                1.07           estimate D2E/DX2                !
 ! R37   R(31,33)                1.07           estimate D2E/DX2                !
 ! R38   R(31,34)                1.07           estimate D2E/DX2                !
 ! A1    A(2,1,3)              109.4712         estimate D2E/DX2                !
 ! A2    A(2,1,4)              109.4712         estimate D2E/DX2                !
 ! A3    A(2,1,5)              109.4712         estimate D2E/DX2                !
 ! A4    A(3,1,4)              109.4712         estimate D2E/DX2                !
 ! A5    A(3,1,5)              109.4712         estimate D2E/DX2                !
 ! A6    A(3,1,23)             134.0582         estimate D2E/DX2                !
 ! A7    A(4,1,5)              109.4712         estimate D2E/DX2                !
 ! A8    A(4,1,23)              73.2624         estimate D2E/DX2                !
 ! A9    A(5,1,23)             112.3982         estimate D2E/DX2                !
 ! A10   A(1,2,13)             149.4563         estimate D2E/DX2                !
 ! A11   A(1,2,22)             136.2165         estimate D2E/DX2                !
 ! A12   A(13,2,23)            116.6651         estimate D2E/DX2                !
 ! A13   A(1,5,6)              109.4712         estimate D2E/DX2                !
 ! A14   A(5,6,7)              109.4712         estimate D2E/DX2                !
 ! A15   A(5,6,8)              109.4712         estimate D2E/DX2                !
 ! A16   A(5,6,9)              109.4712         estimate D2E/DX2                !
 ! A17   A(7,6,8)              109.4712         estimate D2E/DX2                !
 ! A18   A(7,6,9)              109.4712         estimate D2E/DX2                !
 ! A19   A(8,6,9)              109.4712         estimate D2E/DX2                !
 ! A20   A(6,9,12)             145.2766         estimate D2E/DX2                !
 ! A21   A(11,10,13)           106.9463         estimate D2E/DX2                !
 ! A22   A(11,10,14)           126.5268         estimate D2E/DX2                !
 ! A23   A(13,10,14)           126.5268         estimate D2E/DX2                !
 ! A24   A(10,11,15)           126.5268         estimate D2E/DX2                !
 ! A25   A(10,11,17)           106.9464         estimate D2E/DX2                !
 ! A26   A(15,11,17)           126.5268         estimate D2E/DX2                !
 ! A27   A(9,12,13)            139.692          estimate D2E/DX2                !
 ! A28   A(9,12,16)             57.5884         estimate D2E/DX2                !
 ! A29   A(9,12,17)             81.8248         estimate D2E/DX2                !
 ! A30   A(13,12,16)           125.3602         estimate D2E/DX2                !
 ! A31   A(13,12,17)           109.2797         estimate D2E/DX2                !
 ! A32   A(16,12,17)           125.3602         estimate D2E/DX2                !
 ! A33   A(2,13,10)            135.8385         estimate D2E/DX2                !
 ! A34   A(2,13,12)             92.8757         estimate D2E/DX2                !
 ! A35   A(10,13,12)           108.4138         estimate D2E/DX2                !
 ! A36   A(10,13,22)           125.7931         estimate D2E/DX2                !
 ! A37   A(12,13,22)           125.7931         estimate D2E/DX2                !
 ! A38   A(11,17,12)           108.4138         estimate D2E/DX2                !
 ! A39   A(11,17,18)           125.7931         estimate D2E/DX2                !
 ! A40   A(12,17,18)           125.7931         estimate D2E/DX2                !
 ! A41   A(17,18,19)           109.4712         estimate D2E/DX2                !
 ! A42   A(17,18,20)           109.4712         estimate D2E/DX2                !
 ! A43   A(17,18,21)           109.4712         estimate D2E/DX2                !
 ! A44   A(19,18,20)           109.4712         estimate D2E/DX2                !
 ! A45   A(19,18,21)           109.4712         estimate D2E/DX2                !
 ! A46   A(20,18,21)           109.4712         estimate D2E/DX2                !
 ! A47   A(2,22,24)            101.2014         estimate D2E/DX2                !
 ! A48   A(2,22,25)            148.8649         estimate D2E/DX2                !
 ! A49   A(13,22,23)           109.4712         estimate D2E/DX2                !
 ! A50   A(13,22,24)           109.4712         estimate D2E/DX2                !
 ! A51   A(13,22,25)           109.4712         estimate D2E/DX2                !
 ! A52   A(23,22,24)           109.4712         estimate D2E/DX2                !
 ! A53   A(23,22,25)           109.4712         estimate D2E/DX2                !
 ! A54   A(24,22,25)           109.4712         estimate D2E/DX2                !
 ! A55   A(1,23,22)            131.964          estimate D2E/DX2                !
 ! A56   A(22,25,26)           109.4712         estimate D2E/DX2                !
 ! A57   A(22,25,27)           109.4712         estimate D2E/DX2                !
 ! A58   A(22,25,28)           109.4712         estimate D2E/DX2                !
 ! A59   A(26,25,27)           109.4712         estimate D2E/DX2                !
 ! A60   A(26,25,28)           109.4712         estimate D2E/DX2                !
 ! A61   A(27,25,28)           109.4712         estimate D2E/DX2                !
 ! A62   A(25,28,29)           109.4712         estimate D2E/DX2                !
 ! A63   A(25,28,30)           109.4712         estimate D2E/DX2                !
 ! A64   A(25,28,31)           109.4712         estimate D2E/DX2                !
 ! A65   A(29,28,30)           109.4712         estimate D2E/DX2                !
 ! A66   A(29,28,31)           109.4712         estimate D2E/DX2                !
 ! A67   A(30,28,31)           109.4712         estimate D2E/DX2                !
 ! A68   A(28,31,32)           109.4712         estimate D2E/DX2                !
 ! A69   A(28,31,33)           109.4712         estimate D2E/DX2                !
 ! A70   A(28,31,34)           109.4712         estimate D2E/DX2                !
 ! A71   A(32,31,33)           109.4712         estimate D2E/DX2                !
 ! A72   A(32,31,34)           109.4712         estimate D2E/DX2                !
 ! A73   A(33,31,34)           109.4712         estimate D2E/DX2                !
 ! D1    D(3,1,2,13)            95.7421         estimate D2E/DX2                !
 ! D2    D(3,1,2,22)          -130.6538         estimate D2E/DX2                !
 ! D3    D(4,1,2,13)          -144.2579         estimate D2E/DX2                !
 ! D4    D(4,1,2,22)           -10.6538         estimate D2E/DX2                !
 ! D5    D(5,1,2,13)           -24.2579         estimate D2E/DX2                !
 ! D6    D(5,1,2,22)           109.3462         estimate D2E/DX2                !
 ! D7    D(2,1,5,6)             60.0            estimate D2E/DX2                !
 ! D8    D(3,1,5,6)            -60.0            estimate D2E/DX2                !
 ! D9    D(4,1,5,6)            180.0            estimate D2E/DX2                !
 ! D10   D(23,1,5,6)           100.642          estimate D2E/DX2                !
 ! D11   D(3,1,23,22)           52.9977         estimate D2E/DX2                !
 ! D12   D(4,1,23,22)          154.1467         estimate D2E/DX2                !
 ! D13   D(5,1,23,22)         -101.2253         estimate D2E/DX2                !
 ! D14   D(1,2,13,10)         -110.2477         estimate D2E/DX2                !
 ! D15   D(1,2,13,12)           10.13           estimate D2E/DX2                !
 ! D16   D(23,2,13,10)         132.6663         estimate D2E/DX2                !
 ! D17   D(23,2,13,12)        -106.956          estimate D2E/DX2                !
 ! D18   D(1,2,22,24)           97.1294         estimate D2E/DX2                !
 ! D19   D(1,2,22,25)          -72.9407         estimate D2E/DX2                !
 ! D20   D(1,5,6,7)             60.0            estimate D2E/DX2                !
 ! D21   D(1,5,6,8)            180.0            estimate D2E/DX2                !
 ! D22   D(1,5,6,9)            -60.0            estimate D2E/DX2                !
 ! D23   D(5,6,9,12)             6.9849         estimate D2E/DX2                !
 ! D24   D(7,6,9,12)          -113.0151         estimate D2E/DX2                !
 ! D25   D(8,6,9,12)           126.9849         estimate D2E/DX2                !
 ! D26   D(6,9,12,13)           62.4668         estimate D2E/DX2                !
 ! D27   D(6,9,12,16)          -45.6671         estimate D2E/DX2                !
 ! D28   D(6,9,12,17)          172.7277         estimate D2E/DX2                !
 ! D29   D(13,10,11,15)       -179.9998         estimate D2E/DX2                !
 ! D30   D(13,10,11,17)          0.0            estimate D2E/DX2                !
 ! D31   D(14,10,11,15)          0.0            estimate D2E/DX2                !
 ! D32   D(14,10,11,17)        179.9998         estimate D2E/DX2                !
 ! D33   D(11,10,13,2)         114.7531         estimate D2E/DX2                !
 ! D34   D(11,10,13,12)          0.0            estimate D2E/DX2                !
 ! D35   D(11,10,13,22)        180.0            estimate D2E/DX2                !
 ! D36   D(14,10,13,2)         -65.2467         estimate D2E/DX2                !
 ! D37   D(14,10,13,12)       -179.9998         estimate D2E/DX2                !
 ! D38   D(14,10,13,22)          0.0002         estimate D2E/DX2                !
 ! D39   D(10,11,17,12)          0.0            estimate D2E/DX2                !
 ! D40   D(10,11,17,18)       -180.0            estimate D2E/DX2                !
 ! D41   D(15,11,17,12)        179.9998         estimate D2E/DX2                !
 ! D42   D(15,11,17,18)         -0.0002         estimate D2E/DX2                !
 ! D43   D(9,12,13,2)          -40.3546         estimate D2E/DX2                !
 ! D44   D(9,12,13,10)         100.3388         estimate D2E/DX2                !
 ! D45   D(9,12,13,22)         -79.6612         estimate D2E/DX2                !
 ! D46   D(16,12,13,2)          39.3064         estimate D2E/DX2                !
 ! D47   D(16,12,13,10)        179.9998         estimate D2E/DX2                !
 ! D48   D(16,12,13,22)         -0.0002         estimate D2E/DX2                !
 ! D49   D(17,12,13,2)        -140.6934         estimate D2E/DX2                !
 ! D50   D(17,12,13,10)          0.0            estimate D2E/DX2                !
 ! D51   D(17,12,13,22)       -180.0            estimate D2E/DX2                !
 ! D52   D(9,12,17,11)        -139.9896         estimate D2E/DX2                !
 ! D53   D(9,12,17,18)          40.0104         estimate D2E/DX2                !
 ! D54   D(13,12,17,11)          0.0            estimate D2E/DX2                !
 ! D55   D(13,12,17,18)        180.0            estimate D2E/DX2                !
 ! D56   D(16,12,17,11)       -179.9998         estimate D2E/DX2                !
 ! D57   D(16,12,17,18)          0.0002         estimate D2E/DX2                !
 ! D58   D(10,13,22,23)       -150.0            estimate D2E/DX2                !
 ! D59   D(10,13,22,24)        -30.0            estimate D2E/DX2                !
 ! D60   D(10,13,22,25)         90.0            estimate D2E/DX2                !
 ! D61   D(12,13,22,23)         30.0            estimate D2E/DX2                !
 ! D62   D(12,13,22,24)        150.0            estimate D2E/DX2                !
 ! D63   D(12,13,22,25)        -90.0            estimate D2E/DX2                !
 ! D64   D(11,17,18,19)        -30.0            estimate D2E/DX2                !
 ! D65   D(11,17,18,20)         90.0            estimate D2E/DX2                !
 ! D66   D(11,17,18,21)       -150.0            estimate D2E/DX2                !
 ! D67   D(12,17,18,19)        150.0            estimate D2E/DX2                !
 ! D68   D(12,17,18,20)        -90.0            estimate D2E/DX2                !
 ! D69   D(12,17,18,21)         30.0            estimate D2E/DX2                !
 ! D70   D(13,22,23,1)          37.9153         estimate D2E/DX2                !
 ! D71   D(24,22,23,1)         -82.0847         estimate D2E/DX2                !
 ! D72   D(25,22,23,1)         157.9153         estimate D2E/DX2                !
 ! D73   D(2,22,25,26)        -130.3359         estimate D2E/DX2                !
 ! D74   D(2,22,25,27)         -10.3359         estimate D2E/DX2                !
 ! D75   D(2,22,25,28)         109.6641         estimate D2E/DX2                !
 ! D76   D(13,22,25,26)        -60.0            estimate D2E/DX2                !
 ! D77   D(13,22,25,27)         60.0            estimate D2E/DX2                !
 ! D78   D(13,22,25,28)        180.0            estimate D2E/DX2                !
 ! D79   D(23,22,25,26)        180.0            estimate D2E/DX2                !
 ! D80   D(23,22,25,27)        -60.0            estimate D2E/DX2                !
 ! D81   D(23,22,25,28)         60.0            estimate D2E/DX2                !
 ! D82   D(24,22,25,26)         60.0            estimate D2E/DX2                !
 ! D83   D(24,22,25,27)        180.0            estimate D2E/DX2                !
 ! D84   D(24,22,25,28)        -60.0            estimate D2E/DX2                !
 ! D85   D(22,25,28,29)        -60.0            estimate D2E/DX2                !
 ! D86   D(22,25,28,30)         60.0            estimate D2E/DX2                !
 ! D87   D(22,25,28,31)        180.0            estimate D2E/DX2                !
 ! D88   D(26,25,28,29)        180.0            estimate D2E/DX2                !
 ! D89   D(26,25,28,30)        -60.0            estimate D2E/DX2                !
 ! D90   D(26,25,28,31)         60.0            estimate D2E/DX2                !
 ! D91   D(27,25,28,29)         60.0            estimate D2E/DX2                !
 ! D92   D(27,25,28,30)        180.0            estimate D2E/DX2                !
 ! D93   D(27,25,28,31)        -60.0            estimate D2E/DX2                !
 ! D94   D(25,28,31,32)         60.0            estimate D2E/DX2                !
 ! D95   D(25,28,31,33)       -180.0            estimate D2E/DX2                !
 ! D96   D(25,28,31,34)        -60.0            estimate D2E/DX2                !
 ! D97   D(29,28,31,32)        -60.0            estimate D2E/DX2                !
 ! D98   D(29,28,31,33)         60.0            estimate D2E/DX2                !
 ! D99   D(29,28,31,34)        180.0            estimate D2E/DX2                !
 ! D100  D(30,28,31,32)        180.0            estimate D2E/DX2                !
 ! D101  D(30,28,31,33)        -60.0            estimate D2E/DX2                !
 ! D102  D(30,28,31,34)         60.0            estimate D2E/DX2                !
 --------------------------------------------------------------------------------
 Trust Radius=3.00D-01 FncErr=1.00D-07 GrdErr=1.00D-06
 Number of steps in this run= 204 maximum allowed number of steps= 204.
 GradGradGradGradGradGradGradGradGradGradGradGradGradGradGradGradGradGrad

                          Input orientation:                          
 ---------------------------------------------------------------------
 Center     Atomic      Atomic             Coordinates (Angstroms)
 Number     Number       Type             X           Y           Z
 ---------------------------------------------------------------------
      1         16           0       -2.314433    0.727700    0.135257
      2          8           0       -2.339432   -0.732863    0.296044
      3          8           0       -1.665663    1.069285   -1.138377
      4          8           0       -3.690169    1.244482    0.138316
      5          8           0       -1.459925    1.412017    1.396379
      6          6           0       -0.121259    0.909161    1.393402
      7          1           0        0.351103    1.157864    0.466083
      8          1           0        0.426239    1.347615    2.201426
      9          1           0       -0.139461   -0.154260    1.510470
     10          6           0       -1.120410   -2.975007    0.322831
     11          6           0        0.139747   -2.933334    0.791606
     12          6           0       -0.923517   -1.248877    1.570106
     13          7           0       -1.757316   -1.914567    0.824274
     14          1           0       -1.533559   -3.716969   -0.328093
     15          1           0        0.919827   -3.635836    0.584560
     16          1           0       -1.151825   -0.350104    2.103943
     17          7           0        0.231776   -1.848789    1.564212
     18          6           0        1.433719   -1.406816    2.285942
     19          1           0        2.026299   -2.258593    2.547140
     20          1           0        2.005052   -0.753066    1.660570
     21          1           0        1.144688   -0.887080    3.175457
     22          6           0       -3.161906   -1.558791    0.576380
     23          1           0       -3.274882   -0.495970    0.626851
     24          1           0       -3.450816   -1.902455   -0.394870
     25          6           0       -4.054965   -2.221122    1.641914
     26          1           0       -3.941989   -3.283944    1.591443
     27          1           0       -3.766055   -1.877459    2.613164
     28          6           0       -5.526440   -1.848405    1.382215
     29          1           0       -5.639416   -0.785583    1.432686
     30          1           0       -5.815350   -2.192068    0.410965
     31          6           0       -6.419499   -2.510736    2.447749
     32          1           0       -6.130588   -2.167072    3.418999
     33          1           0       -7.441887   -2.251769    2.267309
     34          1           0       -6.306522   -3.573557    2.397278
 ---------------------------------------------------------------------
                    Distance matrix (angstroms):
                    1          2          3          4          5
     1  S    0.000000
     2  O    1.469600   0.000000
     3  O    1.469600   2.399847   0.000000
     4  O    1.469600   2.399847   2.399847   0.000000
     5  O    1.670000   2.566082   2.566082   2.566082   0.000000
     6  C    2.534929   2.969971   2.969971   3.798000   1.430000
     7  H    2.720214   3.292831   2.578659   4.055467   2.051796
     8  H    3.487783   3.950672   3.950672   4.605636   2.051796
     9  H    2.720215   2.578659   3.292832   4.055468   2.051796
    10  C    3.894986   2.552243   4.334596   4.943865   4.529212
    11  C    4.456116   3.351713   4.796384   5.705191   4.669773
    12  C    2.810747   1.973403   3.641501   3.990142   2.719977
    13  N    2.786880   1.419264   3.572642   3.766438   3.388496
    14  H    4.536468   3.153389   4.856154   5.429963   5.411628
    15  H    5.450023   4.374158   5.638389   6.728202   5.639422
    16  H    2.527656   2.196682   3.576497   3.584632   1.923706
    17  N    3.894020   3.076467   4.406746   5.194532   3.677346
    18  C    4.819776   4.318631   5.240534   6.155965   4.136462
    19  H    5.794573   5.143432   6.187761   7.124042   5.191473
    20  H    4.814270   4.553776   4.962783   6.224388   4.094319
    21  H    4.880148   4.522598   5.507685   6.094557   3.903201
    22  C    2.478073   1.198836   3.476480   2.886053   3.520630
    23  H    1.631410   1.020107   2.855807   1.854805   2.743475
    24  H    2.913781   1.755130   3.545534   3.200748   4.261214
    25  C    3.740992   2.639950   4.926008   3.795299   4.471489
    26  H    4.567571   3.279368   5.619979   4.762523   5.315142
    27  H    3.877381   2.952015   5.212389   3.984613   4.197553
    28  C    4.302117   3.547001   5.456362   3.805932   5.212205
    29  H    3.876708   3.490649   5.083464   3.097761   4.722171
    30  H    4.567000   3.771537   5.500617   4.049766   5.738483
    31  C    5.717225   4.943441   6.948079   5.185015   6.410206
    32  H    5.807385   5.116901   7.153967   5.325150   6.222215
    33  H    6.301879   5.676972   7.482838   5.552636   7.068643
    34  H    6.289224   5.312488   7.456166   5.929731   7.024760
                    6          7          8          9         10
     6  C    0.000000
     7  H    1.070000   0.000000
     8  H    1.070000   1.747303   0.000000
     9  H    1.070000   1.747303   1.747303   0.000000
    10  C    4.151046   4.389362   4.960475   3.213933   0.000000
    11  C    3.898083   4.109567   4.516215   2.884090   1.345170
    12  C    2.309105   2.938694   2.993690   1.347771   2.138688
    13  N    3.312707   3.743470   4.160084   2.487368   1.334777
    14  H    5.134122   5.286460   5.990767   4.244610   1.070000
    15  H    4.732344   4.828772   5.262382   3.755099   2.160500
    16  H    1.775580   2.686140   2.319923   1.189725   3.172297
    17  N    2.785695   3.203137   3.265097   1.735550   2.153556
    18  C    2.928879   3.325887   2.934118   2.155260   3.582821
    19  H    3.997222   4.336964   3.960359   3.192713   3.919513
    20  H    2.712117   2.795354   2.682916   2.231599   4.061414
    21  H    2.829279   3.486012   2.541410   2.226711   4.198522
    22  C    4.000480   4.442253   4.895177   3.461272   2.497531
    23  H    3.536570   3.988581   4.424522   3.275426   3.298455
    24  H    4.710525   4.955944   5.686411   4.201378   2.663880
    25  C    5.033336   5.675699   5.755878   4.429488   3.304533
    26  H    5.676206   6.279070   6.395689   4.925514   3.109039
    27  H    4.747378   5.547443   5.305276   4.163836   3.667380
    28  C    6.067970   6.665017   6.805882   5.648550   4.669543
    29  H    5.772673   6.371626   6.475621   5.536616   5.142642
    30  H    6.557855   7.017850   7.395441   6.130031   4.760590
    31  C    7.243974   7.951520   7.862040   6.772765   5.728103
    32  H    7.048282   7.860485   7.538402   6.602083   5.944822
    33  H    8.021644   8.694866   8.652590   7.635298   6.653205
    34  H    7.704544   8.392844   8.341845   7.107086   5.617594
                   11         12         13         14         15
    11  C    0.000000
    12  C    2.138688   0.000000
    13  N    2.153556   1.301779   0.000000
    14  H    2.160500   3.172820   2.150969   0.000000
    15  H    1.070000   3.172820   3.191758   2.618896   0.000000
    16  H    3.172297   1.070000   2.109909   4.170887   4.170887
    17  N    1.334777   1.301780   2.123281   3.191758   2.150969
    18  C    2.497531   2.468587   3.546405   4.579817   2.850845
    19  H    2.663880   3.267344   4.171614   4.802751   2.640606
    20  H    2.998004   2.971620   4.025406   5.026059   3.262801
    21  H    3.298455   2.643013   3.873683   5.239860   3.784041
    22  C    3.582821   2.468587   1.470000   2.850845   4.579817
    23  H    4.198521   2.643013   2.086720   3.784040   5.239859
    24  H    3.919513   3.267344   2.086720   2.640605   4.802750
    25  C    4.338880   3.279693   2.457987   3.532134   5.279011
    26  H    4.174115   3.640484   2.690081   3.110090   4.977438
    27  H    4.437143   3.092427   2.690080   4.125388   5.400426
    28  C    5.799273   4.645604   3.810770   4.728613   6.736877
    29  H    6.198592   4.740594   4.088455   5.343353   7.201869
    30  H    6.013114   5.115002   4.088455   4.604917   6.890370
    31  C    6.778282   5.706870   4.972628   5.747409   7.655261
    32  H    6.841598   5.601347   5.091352   6.129891   7.739487
    33  H    7.753929   6.631820   5.874555   6.617497   8.640922
    34  H    6.674014   5.921579   5.091352   5.498127   7.450500
                   16         17         18         19         20
    16  H    0.000000
    17  N    2.109909   0.000000
    18  C    2.799071   1.470000   0.000000
    19  H    3.733527   2.086720   1.070000   0.000000
    20  H    3.213227   2.086720   1.070000   1.747303   0.000000
    21  H    2.590455   2.086720   1.070000   1.747303   1.747303
    22  C    2.799071   3.546405   4.905656   5.593844   5.340610
    23  H    2.590454   3.873682   5.074756   5.907358   5.386314
    24  H    3.733526   4.171614   5.593844   6.227443   5.942426
    25  C    3.484595   4.303582   5.586011   6.148383   6.235330
    26  H    4.081064   4.413697   5.736216   6.130674   6.463545
    27  H    3.070230   4.133252   5.231273   5.805255   5.956288
    28  C    4.680069   5.761091   7.032462   7.653050   7.615813
    29  H    4.558366   5.968132   7.151448   7.885109   7.647933
    30  H    5.292208   6.165675   7.528689   8.127677   8.049281
    31  C    5.703939   6.742275   7.932077   8.450145   8.641881
    32  H    5.460662   6.634849   7.686387   8.203861   8.442756
    33  H    6.573271   7.716336   8.915754   9.472323   9.584305
    34  H    6.086674   6.813088   8.038563   8.437269   8.807961
                   21         22         23         24         25
    21  H    0.000000
    22  C    5.074756   0.000000
    23  H    5.116733   1.070000   0.000000
    24  H    5.907357   1.070000   1.747303   0.000000
    25  C    5.582814   1.540000   2.148263   2.148263   0.000000
    26  H    5.841946   2.148263   3.024610   2.468846   1.070000
    27  H    5.041073   2.148263   2.468846   3.024610   1.070000
    28  C    6.974511   2.514809   2.732978   2.732978   1.540000
    29  H    7.005113   2.732978   2.514809   3.062243   2.148263
    30  H    7.601811   2.732978   3.062243   2.514809   2.148263
    31  C    7.770633   3.875582   4.154945   4.154945   2.514809
    32  H    7.391031   4.154945   4.329403   4.668704   2.732978
    33  H    8.741646   4.653783   4.810184   4.810184   3.444314
    34  H    7.958848   4.154945   4.668704   4.329403   2.732978
                   26         27         28         29         30
    26  H    0.000000
    27  H    1.747303   0.000000
    28  C    2.148263   2.148263   0.000000
    29  H    3.024610   2.468846   1.070000   0.000000
    30  H    2.468846   3.024610   1.070000   1.747303   0.000000
    31  C    2.732978   2.732978   1.540000   2.148263   2.148263
    32  H    3.062243   2.514809   2.148263   2.468846   3.024610
    33  H    3.710993   3.710993   2.148263   2.468846   2.468846
    34  H    2.514809   3.062243   2.148263   3.024610   2.468846
                   31         32         33         34
    31  C    0.000000
    32  H    1.070000   0.000000
    33  H    1.070000   1.747303   0.000000
    34  H    1.070000   1.747303   1.747303   0.000000
 Stoichiometry    C9H18N2O4S
 Framework group  C1[X(C9H18N2O4S)]
 Deg. of freedom    96
 Full point group                 C1      NOp   1
 Largest Abelian subgroup         C1      NOp   1
 Largest concise Abelian subgroup C1      NOp   1
                         Standard orientation:                         
 ---------------------------------------------------------------------
 Center     Atomic      Atomic             Coordinates (Angstroms)
 Number     Number       Type             X           Y           Z
 ---------------------------------------------------------------------
      1         16           0        0.125463    1.764852   -0.231504
      2          8           0       -0.183831    0.369105   -0.572021
      3          8           0        0.887123    2.379334   -1.327866
      4          8           0       -1.125787    2.508151   -0.027534
      5          8           0        1.033286    1.807994    1.169530
      6          6           0        2.250820    1.084724    0.971056
      7          1           0        2.805376    1.532121    0.172807
      8          1           0        2.832480    1.112366    1.868725
      9          1           0        2.025626    0.068495    0.723129
     10          6           0        0.584942   -1.944716   -1.326449
     11          6           0        1.806351   -2.308269   -0.895785
     12          6           0        1.046188   -0.808237    0.425594
     13          7           0        0.137684   -1.010491   -0.484540
     14          1           0        0.069973   -2.330905   -2.181180
     15          1           0        2.447921   -3.038702   -1.342726
     16          1           0        0.967418   -0.113451    1.235512
     17          7           0        2.065615   -1.584341    0.195241
     18          6           0        3.293849   -1.651986    1.000080
     19          1           0        3.700935   -2.640109    0.947226
     20          1           0        4.007948   -0.951276    0.620649
     21          1           0        3.066684   -1.413811    2.018200
     22          6           0       -1.160468   -0.326156   -0.570494
     23          1           0       -1.072004    0.659045   -0.162507
     24          1           0       -1.462781   -0.262153   -1.594901
     25          6           0       -2.212653   -1.119302    0.226642
     26          1           0       -2.301116   -2.104502   -0.181345
     27          1           0       -1.910339   -1.183305    1.251050
     28          6           0       -3.572621   -0.402379    0.136595
     29          1           0       -3.484157    0.582821    0.544582
     30          1           0       -3.874934   -0.338376   -0.887813
     31          6           0       -4.624805   -1.195525    0.933731
     32          1           0       -4.322492   -1.259528    1.958138
     33          1           0       -5.569718   -0.697404    0.871166
     34          1           0       -4.713269   -2.180726    0.525744
 ---------------------------------------------------------------------
 Rotational constants (GHZ):      0.6355745      0.4276139      0.3049779
 Standard basis: 6-311+G(d) (5D, 7F)
 There are   414 symmetry adapted basis functions of A   symmetry.
 Integral buffers will be    131072 words long.
 Raffenetti 2 integral format.
 Two-electron integral symmetry is turned on.
   414 basis functions,   680 primitive gaussians,   430 cartesian basis functions
    67 alpha electrons       67 beta electrons
       nuclear repulsion energy      1527.3688478358 Hartrees.
 NAtoms=   34 NActive=   34 NUniq=   34 SFac= 7.50D-01 NAtFMM=   80 NAOKFM=F Big=F
 One-electron integrals computed using PRISM.
 NBasis=   414 RedAO= T  NBF=   414
 NBsUse=   414 1.00D-06 NBFU=   414
 Harris functional with IExCor= 1009 diagonalized for initial guess.
 ExpMin= 4.05D-02 ExpMax= 9.34D+04 ExpMxC= 3.17D+03 IAcc=2 IRadAn=         0 AccDes= 0.00D+00
 HarFok:  IExCor= 1009 AccDes= 0.00D+00 IRadAn=         0 IDoV= 1
 ScaDFX=  1.000000  1.000000  1.000000  1.000000
 FoFCou: FMM=F IPFlag=           0 FMFlag=      100000 FMFlg1=           0
         NFxFlg=           0 DoJE=T BraDBF=F KetDBF=T FulRan=T
         Omega=  0.000000  0.000000  1.000000  0.000000  0.000000 ICntrl=     500 IOpCl=  0
         NMat0=    1 NMatS0=    1 NMatT0=    0 NMatD0=    1 NMtDS0=    0 NMtDT0=    0
         I1Cent=           4 NGrid=           0.
 Petite list used in FoFCou.
 Initial guess orbital symmetries:
       Occupied  (A) (A) (A) (A) (A) (A) (A) (A) (A) (A) (A) (A)
                 (A) (A) (A) (A) (A) (A) (A) (A) (A) (A) (A) (A)
                 (A) (A) (A) (A) (A) (A) (A) (A) (A) (A) (A) (A)
                 (A) (A) (A) (A) (A) (A) (A) (A) (A) (A) (A) (A)
                 (A) (A) (A) (A) (A) (A) (A) (A) (A) (A) (A) (A)
                 (A) (A) (A) (A) (A) (A) (A)
       Virtual   (A) (A) (A) (A) (A) (A) (A) (A) (A) (A) (A) (A)
                 (A) (A) (A) (A) (A) (A) (A) (A) (A) (A) (A) (A)
                 (A) (A) (A) (A) (A) (A) (A) (A) (A) (A) (A) (A)
                 (A) (A) (A) (A) (A) (A) (A) (A) (A) (A) (A) (A)
                 (A) (A) (A) (A) (A) (A) (A) (A) (A) (A) (A) (A)
                 (A) (A) (A) (A) (A) (A) (A) (A) (A) (A) (A) (A)
                 (A) (A) (A) (A) (A) (A) (A) (A) (A) (A) (A) (A)
                 (A) (A) (A) (A) (A) (A) (A) (A) (A) (A) (A) (A)
                 (A) (A) (A) (A) (A) (A) (A) (A) (A) (A) (A) (A)
                 (A) (A) (A) (A) (A) (A) (A) (A) (A) (A) (A) (A)
                 (A) (A) (A) (A) (A) (A) (A) (A) (A) (A) (A) (A)
                 (A) (A) (A) (A) (A) (A) (A) (A) (A) (A) (A) (A)
                 (A) (A) (A) (A) (A) (A) (A) (A) (A) (A) (A) (A)
                 (A) (A) (A) (A) (A) (A) (A) (A) (A) (A) (A) (A)
                 (A) (A) (A) (A) (A) (A) (A) (A) (A) (A) (A) (A)
                 (A) (A) (A) (A) (A) (A) (A) (A) (A) (A) (A) (A)
                 (A) (A) (A) (A) (A) (A) (A) (A) (A) (A) (A) (A)
                 (A) (A) (A) (A) (A) (A) (A) (A) (A) (A) (A) (A)
                 (A) (A) (A) (A) (A) (A) (A) (A) (A) (A) (A) (A)
                 (A) (A) (A) (A) (A) (A) (A) (A) (A) (A) (A) (A)
                 (A) (A) (A) (A) (A) (A) (A) (A) (A) (A) (A) (A)
                 (A) (A) (A) (A) (A) (A) (A) (A) (A) (A) (A) (A)
                 (A) (A) (A) (A) (A) (A) (A) (A) (A) (A) (A) (A)
                 (A) (A) (A) (A) (A) (A) (A) (A) (A) (A) (A) (A)
                 (A) (A) (A) (A) (A) (A) (A) (A) (A) (A) (A) (A)
                 (A) (A) (A) (A) (A) (A) (A) (A) (A) (A) (A) (A)
                 (A) (A) (A) (A) (A) (A) (A) (A) (A) (A) (A) (A)
                 (A) (A) (A) (A) (A) (A) (A) (A) (A) (A) (A) (A)
                 (A) (A) (A) (A) (A) (A) (A) (A) (A) (A) (A)
 The electronic state of the initial guess is 1-A.
 Requested convergence on RMS density matrix=1.00D-08 within 128 cycles.
 Requested convergence on MAX density matrix=1.00D-06.
 Requested convergence on             energy=1.00D-06.
 No special actions if energy rises.
 Restarting incremental Fock formation.
 SCF Done:  E(RM062X) =  -1161.13463858     A.U. after   24 cycles
             Convg  =    0.6747D-08             -V/T =  1.9979

 **********************************************************************

            Population analysis using the SCF density.

 **********************************************************************

 Orbital symmetries:
       Occupied  (A) (A) (A) (A) (A) (A) (A) (A) (A) (A) (A) (A)
                 (A) (A) (A) (A) (A) (A) (A) (A) (A) (A) (A) (A)
                 (A) (A) (A) (A) (A) (A) (A) (A) (A) (A) (A) (A)
                 (A) (A) (A) (A) (A) (A) (A) (A) (A) (A) (A) (A)
                 (A) (A) (A) (A) (A) (A) (A) (A) (A) (A) (A) (A)
                 (A) (A) (A) (A) (A) (A) (A)
       Virtual   (A) (A) (A) (A) (A) (A) (A) (A) (A) (A) (A) (A)
                 (A) (A) (A) (A) (A) (A) (A) (A) (A) (A) (A) (A)
                 (A) (A) (A) (A) (A) (A) (A) (A) (A) (A) (A) (A)
                 (A) (A) (A) (A) (A) (A) (A) (A) (A) (A) (A) (A)
                 (A) (A) (A) (A) (A) (A) (A) (A) (A) (A) (A) (A)
                 (A) (A) (A) (A) (A) (A) (A) (A) (A) (A) (A) (A)
                 (A) (A) (A) (A) (A) (A) (A) (A) (A) (A) (A) (A)
                 (A) (A) (A) (A) (A) (A) (A) (A) (A) (A) (A) (A)
                 (A) (A) (A) (A) (A) (A) (A) (A) (A) (A) (A) (A)
                 (A) (A) (A) (A) (A) (A) (A) (A) (A) (A) (A) (A)
                 (A) (A) (A) (A) (A) (A) (A) (A) (A) (A) (A) (A)
                 (A) (A) (A) (A) (A) (A) (A) (A) (A) (A) (A) (A)
                 (A) (A) (A) (A) (A) (A) (A) (A) (A) (A) (A) (A)
                 (A) (A) (A) (A) (A) (A) (A) (A) (A) (A) (A) (A)
                 (A) (A) (A) (A) (A) (A) (A) (A) (A) (A) (A) (A)
                 (A) (A) (A) (A) (A) (A) (A) (A) (A) (A) (A) (A)
                 (A) (A) (A) (A) (A) (A) (A) (A) (A) (A) (A) (A)
                 (A) (A) (A) (A) (A) (A) (A) (A) (A) (A) (A) (A)
                 (A) (A) (A) (A) (A) (A) (A) (A) (A) (A) (A) (A)
                 (A) (A) (A) (A) (A) (A) (A) (A) (A) (A) (A) (A)
                 (A) (A) (A) (A) (A) (A) (A) (A) (A) (A) (A) (A)
                 (A) (A) (A) (A) (A) (A) (A) (A) (A) (A) (A) (A)
                 (A) (A) (A) (A) (A) (A) (A) (A) (A) (A) (A) (A)
                 (A) (A) (A) (A) (A) (A) (A) (A) (A) (A) (A) (A)
                 (A) (A) (A) (A) (A) (A) (A) (A) (A) (A) (A) (A)
                 (A) (A) (A) (A) (A) (A) (A) (A) (A) (A) (A) (A)
                 (A) (A) (A) (A) (A) (A) (A) (A) (A) (A) (A) (A)
                 (A) (A) (A) (A) (A) (A) (A) (A) (A) (A) (A) (A)
                 (A) (A) (A) (A) (A) (A) (A) (A) (A) (A) (A)
 The electronic state is 1-A.
 Alpha  occ. eigenvalues --  -90.17332 -19.72625 -19.72547 -19.63049 -19.61910
 Alpha  occ. eigenvalues --  -14.85887 -14.83209 -10.62805 -10.62205 -10.60172
 Alpha  occ. eigenvalues --  -10.59773 -10.59738 -10.58276 -10.49827 -10.49586
 Alpha  occ. eigenvalues --  -10.49469  -8.51217  -6.43583  -6.43359  -6.43206
 Alpha  occ. eigenvalues --   -1.52910  -1.29221  -1.23899  -1.19634  -1.13038
 Alpha  occ. eigenvalues --   -1.11144  -1.00763  -0.96071  -0.89943  -0.87016
 Alpha  occ. eigenvalues --   -0.86383  -0.83255  -0.78863  -0.77538  -0.76088
 Alpha  occ. eigenvalues --   -0.70898  -0.68416  -0.66764  -0.65452  -0.63335
 Alpha  occ. eigenvalues --   -0.60626  -0.60087  -0.58604  -0.58362  -0.56633
 Alpha  occ. eigenvalues --   -0.55083  -0.54265  -0.52516  -0.51780  -0.51604
 Alpha  occ. eigenvalues --   -0.51235  -0.49247  -0.46606  -0.46555  -0.45339
 Alpha  occ. eigenvalues --   -0.44294  -0.43291  -0.42324  -0.40454  -0.39418
 Alpha  occ. eigenvalues --   -0.37925  -0.37468  -0.36890  -0.35913  -0.32894
 Alpha  occ. eigenvalues --   -0.25939  -0.13362
 Alpha virt. eigenvalues --   -0.01822  -0.01156   0.00337   0.00926   0.01857
 Alpha virt. eigenvalues --    0.02218   0.02584   0.03339   0.03637   0.03983
 Alpha virt. eigenvalues --    0.04352   0.05162   0.05604   0.05896   0.06410
 Alpha virt. eigenvalues --    0.07670   0.07719   0.08211   0.08280   0.08621
 Alpha virt. eigenvalues --    0.09079   0.09165   0.09776   0.10203   0.10451
 Alpha virt. eigenvalues --    0.11713   0.12025   0.12235   0.12893   0.13056
 Alpha virt. eigenvalues --    0.13468   0.14109   0.14410   0.14692   0.15155
 Alpha virt. eigenvalues --    0.15470   0.15637   0.16270   0.16530   0.16878
 Alpha virt. eigenvalues --    0.17508   0.18330   0.18841   0.19727   0.20008
 Alpha virt. eigenvalues --    0.20150   0.20984   0.21073   0.21362   0.21934
 Alpha virt. eigenvalues --    0.22235   0.23068   0.23316   0.23701   0.24295
 Alpha virt. eigenvalues --    0.24648   0.24883   0.25274   0.25848   0.26073
 Alpha virt. eigenvalues --    0.26432   0.27245   0.27395   0.28412   0.28613
 Alpha virt. eigenvalues --    0.28980   0.29036   0.29458   0.29733   0.30052
 Alpha virt. eigenvalues --    0.30376   0.31454   0.31825   0.32375   0.32782
 Alpha virt. eigenvalues --    0.33794   0.33909   0.34153   0.35078   0.35193
 Alpha virt. eigenvalues --    0.35689   0.35960   0.36930   0.37181   0.37896
 Alpha virt. eigenvalues --    0.38632   0.39489   0.40248   0.40696   0.41580
 Alpha virt. eigenvalues --    0.42560   0.42771   0.43663   0.45118   0.45349
 Alpha virt. eigenvalues --    0.45657   0.46934   0.47239   0.47903   0.49024
 Alpha virt. eigenvalues --    0.49478   0.50455   0.50710   0.51522   0.52839
 Alpha virt. eigenvalues --    0.53318   0.53800   0.54670   0.55693   0.56831
 Alpha virt. eigenvalues --    0.57846   0.58982   0.60347   0.61458   0.61731
 Alpha virt. eigenvalues --    0.62537   0.63835   0.64517   0.66006   0.67155
 Alpha virt. eigenvalues --    0.68566   0.68939   0.69363   0.70648   0.71589
 Alpha virt. eigenvalues --    0.72386   0.73422   0.73858   0.74275   0.74938
 Alpha virt. eigenvalues --    0.75846   0.76770   0.77442   0.77548   0.78864
 Alpha virt. eigenvalues --    0.79505   0.79625   0.80218   0.81172   0.81938
 Alpha virt. eigenvalues --    0.83180   0.83536   0.84661   0.85573   0.86216
 Alpha virt. eigenvalues --    0.86784   0.88468   0.88630   0.91798   0.92549
 Alpha virt. eigenvalues --    0.93783   0.95802   0.96783   0.97559   1.00355
 Alpha virt. eigenvalues --    1.02809   1.04227   1.06378   1.06662   1.07686
 Alpha virt. eigenvalues --    1.09297   1.10429   1.12082   1.12733   1.12826
 Alpha virt. eigenvalues --    1.15234   1.15879   1.16675   1.20119   1.20704
 Alpha virt. eigenvalues --    1.21500   1.23195   1.23707   1.25156   1.26614
 Alpha virt. eigenvalues --    1.27417   1.28005   1.28579   1.30435   1.31603
 Alpha virt. eigenvalues --    1.32342   1.35960   1.38090   1.38492   1.39024
 Alpha virt. eigenvalues --    1.42925   1.45301   1.47687   1.50018   1.52067
 Alpha virt. eigenvalues --    1.54454   1.55248   1.57089   1.58394   1.59792
 Alpha virt. eigenvalues --    1.60614   1.62154   1.63776   1.64945   1.65466
 Alpha virt. eigenvalues --    1.66574   1.67458   1.69598   1.70856   1.71518
 Alpha virt. eigenvalues --    1.72459   1.73326   1.73852   1.76031   1.76431
 Alpha virt. eigenvalues --    1.78151   1.78978   1.79618   1.82544   1.83575
 Alpha virt. eigenvalues --    1.86866   1.87818   1.88170   1.90724   1.92290
 Alpha virt. eigenvalues --    1.93310   1.93752   1.96877   1.97618   2.01875
 Alpha virt. eigenvalues --    2.04228   2.05527   2.07033   2.09149   2.12663
 Alpha virt. eigenvalues --    2.19584   2.20525   2.28463   2.31758   2.34054
 Alpha virt. eigenvalues --    2.36919   2.43420   2.45342   2.48811   2.50332
 Alpha virt. eigenvalues --    2.52146   2.56248   2.57049   2.58645   2.58858
 Alpha virt. eigenvalues --    2.59769   2.61259   2.62327   2.62761   2.63962
 Alpha virt. eigenvalues --    2.67373   2.68836   2.69648   2.70922   2.74366
 Alpha virt. eigenvalues --    2.75235   2.78018   2.81568   2.83929   2.86879
 Alpha virt. eigenvalues --    2.88155   2.90725   2.92144   2.93144   2.93962
 Alpha virt. eigenvalues --    2.94515   2.96639   2.98368   3.00466   3.02194
 Alpha virt. eigenvalues --    3.05486   3.06758   3.07669   3.11012   3.11265
 Alpha virt. eigenvalues --    3.12977   3.16937   3.17154   3.19655   3.22296
 Alpha virt. eigenvalues --    3.23354   3.25890   3.26350   3.27308   3.31421
 Alpha virt. eigenvalues --    3.31596   3.33329   3.34200   3.36806   3.39136
 Alpha virt. eigenvalues --    3.41264   3.41966   3.44678   3.48971   3.55298
 Alpha virt. eigenvalues --    3.55971   3.60791   3.65914   3.67339   3.68216
 Alpha virt. eigenvalues --    3.70596   3.73009   3.79271   3.82922   3.94945
 Alpha virt. eigenvalues --    3.96693   4.02268   4.04393   4.10431   4.22763
 Alpha virt. eigenvalues --    4.29565   4.76825   4.86814   4.96184   5.12202
 Alpha virt. eigenvalues --    5.12765   5.17828   5.20106   5.22487   5.24395
 Alpha virt. eigenvalues --    5.24679   5.25815   5.31661   5.41748   5.49669
 Alpha virt. eigenvalues --    5.73016   5.87195   8.39425  17.53871  17.64942
 Alpha virt. eigenvalues --   17.65969  23.59631  23.64343  23.70646  23.78280
 Alpha virt. eigenvalues --   23.81078  23.85297  24.04694  24.15328  24.25470
 Alpha virt. eigenvalues --   35.59309  35.76340  49.94651  49.99961  50.04620
 Alpha virt. eigenvalues --   50.11055 189.65895
          Condensed to atoms (all electrons):
              1          2          3          4          5          6
     1  S   19.591237  -2.652576  -0.009813  -0.059033  -1.073288  -0.135302
     2  O   -2.652576  18.669378   0.361953  -0.112490   0.594206  -0.012453
     3  O   -0.009813   0.361953   8.810056  -0.568235  -0.061516  -0.035253
     4  O   -0.059033  -0.112490  -0.568235   9.258115  -0.183889   0.127472
     5  O   -1.073288   0.594206  -0.061516  -0.183889   9.140561  -0.223842
     6  C   -0.135302  -0.012453  -0.035253   0.127472  -0.223842   6.999993
     7  H   -0.113123   0.054613   0.024024  -0.012433   0.006599   0.357725
     8  H   -0.002776  -0.006529  -0.004743   0.002291  -0.054757   0.377457
     9  H    0.091580   0.005112  -0.002020   0.002527  -0.081088   0.346016
    10  C    0.089373   0.585301   0.110347   0.019296  -0.131781   0.050788
    11  C    0.191961  -1.244819  -0.137715   0.005525  -0.002146   0.124520
    12  C   -1.328217   1.965756   0.098054  -0.222173   0.660035  -1.290364
    13  N    2.477117  -9.888870  -0.145067   0.271117  -0.920352   0.392035
    14  H    0.004155   0.032363   0.001412   0.000088   0.000454  -0.002204
    15  H   -0.004290   0.012297   0.000164  -0.000011   0.000287   0.000241
    16  H    0.031237   0.107645   0.007955   0.014640   0.007169  -0.128204
    17  N   -0.192777   0.253794   0.026421  -0.040524   0.062216   0.118612
    18  C   -0.131414   0.155253   0.006645  -0.008007   0.064767  -0.044214
    19  H   -0.000346   0.000471   0.000046  -0.000007  -0.000007   0.000421
    20  H   -0.003337  -0.001498   0.000266  -0.000035  -0.000448  -0.013234
    21  H    0.000786   0.006153   0.000158  -0.000015   0.000416  -0.009032
    22  C   -1.449389   0.502714  -0.425550  -0.087993   0.269890   0.083144
    23  H    0.029204  -1.502508  -0.062534  -0.098705  -0.080542   0.024850
    24  H   -0.017168  -0.207737   0.006273  -0.038219  -0.002012   0.002499
    25  C    0.286502   0.206306   0.145040  -0.089467  -0.147410  -0.063988
    26  H    0.000743  -0.063129  -0.000433  -0.000680  -0.000582   0.002423
    27  H    0.002517   0.097239   0.000932   0.003603   0.002569   0.003068
    28  C   -0.062257  -0.120355  -0.017127  -0.045857   0.057337  -0.020829
    29  H    0.016964  -0.009154   0.000847  -0.005174  -0.001004   0.000287
    30  H    0.003601   0.014934   0.000305   0.000769  -0.000109   0.000032
    31  C    0.009674   0.057381   0.001390  -0.005939   0.006432  -0.002712
    32  H    0.000722   0.000870   0.000001   0.000105  -0.000009  -0.000055
    33  H    0.000179  -0.000308  -0.000001  -0.000063  -0.000002  -0.000001
    34  H   -0.000192   0.000053   0.000002  -0.000029   0.000003   0.000004
              7          8          9         10         11         12
     1  S   -0.113123  -0.002776   0.091580   0.089373   0.191961  -1.328217
     2  O    0.054613  -0.006529   0.005112   0.585301  -1.244819   1.965756
     3  O    0.024024  -0.004743  -0.002020   0.110347  -0.137715   0.098054
     4  O   -0.012433   0.002291   0.002527   0.019296   0.005525  -0.222173
     5  O    0.006599  -0.054757  -0.081088  -0.131781  -0.002146   0.660035
     6  C    0.357725   0.377457   0.346016   0.050788   0.124520  -1.290364
     7  H    0.375869  -0.016043  -0.051167  -0.005082  -0.014428   0.084955
     8  H   -0.016043   0.397363  -0.034747  -0.009180   0.007787   0.025148
     9  H   -0.051167  -0.034747   0.709674   0.117334  -0.054812  -0.288584
    10  C   -0.005082  -0.009180   0.117334  10.042335  -3.809330   1.056186
    11  C   -0.014428   0.007787  -0.054812  -3.809330  10.852941  -2.844605
    12  C    0.084955   0.025148  -0.288584   1.056186  -2.844605  13.568594
    13  N   -0.055043  -0.000922   0.036645  -2.133627   3.541196  -4.206092
    14  H    0.000010  -0.000004  -0.000109   0.585075  -0.231501   0.044214
    15  H    0.000061  -0.000013   0.000423   0.051428   0.270645   0.091735
    16  H    0.013738   0.000145  -0.128856   0.005359  -0.096885   0.697692
    17  N    0.007971   0.002375  -0.074668   0.445608   0.129829  -0.444847
    18  C   -0.006204  -0.001597   0.065293   0.266400  -0.464998   0.019165
    19  H   -0.000101   0.000171   0.001323   0.051318  -0.052958   0.012965
    20  H   -0.000579  -0.002577  -0.004126  -0.006053   0.006813   0.012827
    21  H    0.001056   0.000205  -0.003590   0.019810  -0.050740   0.084859
    22  C   -0.003060   0.014884   0.011591  -0.920422  -0.014519  -1.067394
    23  H   -0.001421   0.000377  -0.004271  -0.093343   0.227321  -0.397288
    24  H    0.000126  -0.000018   0.000564   0.012509   0.007329  -0.026006
    25  C    0.009928  -0.002485  -0.068063   0.211764  -0.257605   0.453732
    26  H   -0.000007   0.000000   0.000135  -0.032630   0.073388  -0.030952
    27  H    0.000005  -0.000037   0.000555   0.050832  -0.058114   0.060622
    28  C   -0.000175   0.000655  -0.003705  -0.290872   0.194329  -0.120509
    29  H    0.000001  -0.000002   0.000024   0.000905  -0.001878   0.009285
    30  H    0.000000   0.000000   0.000009   0.007439  -0.004986  -0.000314
    31  C    0.000055   0.000004  -0.000345  -0.052958  -0.020753  -0.006742
    32  H    0.000000   0.000000   0.000000   0.000612  -0.000240  -0.001323
    33  H    0.000000   0.000000   0.000000   0.000401   0.000062  -0.000001
    34  H    0.000000   0.000000   0.000000  -0.000187  -0.000398   0.002524
             13         14         15         16         17         18
     1  S    2.477117   0.004155  -0.004290   0.031237  -0.192777  -0.131414
     2  O   -9.888870   0.032363   0.012297   0.107645   0.253794   0.155253
     3  O   -0.145067   0.001412   0.000164   0.007955   0.026421   0.006645
     4  O    0.271117   0.000088  -0.000011   0.014640  -0.040524  -0.008007
     5  O   -0.920352   0.000454   0.000287   0.007169   0.062216   0.064767
     6  C    0.392035  -0.002204   0.000241  -0.128204   0.118612  -0.044214
     7  H   -0.055043   0.000010   0.000061   0.013738   0.007971  -0.006204
     8  H   -0.000922  -0.000004  -0.000013   0.000145   0.002375  -0.001597
     9  H    0.036645  -0.000109   0.000423  -0.128856  -0.074668   0.065293
    10  C   -2.133627   0.585075   0.051428   0.005359   0.445608   0.266400
    11  C    3.541196  -0.231501   0.270645  -0.096885   0.129829  -0.464998
    12  C   -4.206092   0.044214   0.091735   0.697692  -0.444847   0.019165
    13  N   22.867455  -0.199261  -0.000957  -0.232431  -0.997833  -0.433446
    14  H   -0.199261   0.434099   0.002525   0.000586   0.046411   0.004980
    15  H   -0.000957   0.002525   0.418915   0.000376  -0.111631  -0.006201
    16  H   -0.232431   0.000586   0.000376   0.455460  -0.069398  -0.020105
    17  N   -0.997833   0.046411  -0.111631  -0.069398   7.612600   0.015940
    18  C   -0.433446   0.004980  -0.006201  -0.020105   0.015940   6.050908
    19  H   -0.018643   0.000078  -0.000548  -0.000504  -0.072662   0.421563
    20  H   -0.002841   0.000035  -0.000515   0.000095  -0.042473   0.410785
    21  H   -0.007748   0.000080   0.000356   0.004925  -0.096838   0.385032
    22  C   -4.452080   0.010364   0.021549  -0.183969  -0.048877   0.068033
    23  H    1.085394  -0.003993  -0.000311  -0.039318   0.013113  -0.008751
    24  H   -0.158045  -0.003330  -0.000014  -0.002305   0.011179   0.000332
    25  C    0.319990   0.021905  -0.002207   0.153361   0.030630  -0.068144
    26  H    0.105235  -0.005009  -0.000118  -0.001011  -0.003071  -0.000451
    27  H   -0.121330   0.000802   0.000055   0.001548   0.002688   0.002142
    28  C   -0.070508  -0.001051  -0.000363  -0.015561   0.015639   0.007730
    29  H    0.000222   0.000017   0.000000   0.000079   0.000156   0.000049
    30  H   -0.004349   0.000108   0.000001   0.000047   0.000164   0.000014
    31  C   -0.218413   0.001640   0.000089   0.002699   0.001697   0.001166
    32  H   -0.000420   0.000002   0.000000   0.000017   0.000033   0.000005
    33  H    0.001122  -0.000002   0.000000  -0.000002  -0.000005  -0.000002
    34  H   -0.000762   0.000017   0.000000   0.000000   0.000020   0.000021
             19         20         21         22         23         24
     1  S   -0.000346  -0.003337   0.000786  -1.449389   0.029204  -0.017168
     2  O    0.000471  -0.001498   0.006153   0.502714  -1.502508  -0.207737
     3  O    0.000046   0.000266   0.000158  -0.425550  -0.062534   0.006273
     4  O   -0.000007  -0.000035  -0.000015  -0.087993  -0.098705  -0.038219
     5  O   -0.000007  -0.000448   0.000416   0.269890  -0.080542  -0.002012
     6  C    0.000421  -0.013234  -0.009032   0.083144   0.024850   0.002499
     7  H   -0.000101  -0.000579   0.001056  -0.003060  -0.001421   0.000126
     8  H    0.000171  -0.002577   0.000205   0.014884   0.000377  -0.000018
     9  H    0.001323  -0.004126  -0.003590   0.011591  -0.004271   0.000564
    10  C    0.051318  -0.006053   0.019810  -0.920422  -0.093343   0.012509
    11  C   -0.052958   0.006813  -0.050740  -0.014519   0.227321   0.007329
    12  C    0.012965   0.012827   0.084859  -1.067394  -0.397288  -0.026006
    13  N   -0.018643  -0.002841  -0.007748  -4.452080   1.085394  -0.158045
    14  H    0.000078   0.000035   0.000080   0.010364  -0.003993  -0.003330
    15  H   -0.000548  -0.000515   0.000356   0.021549  -0.000311  -0.000014
    16  H   -0.000504   0.000095   0.004925  -0.183969  -0.039318  -0.002305
    17  N   -0.072662  -0.042473  -0.096838  -0.048877   0.013113   0.011179
    18  C    0.421563   0.410785   0.385032   0.068033  -0.008751   0.000332
    19  H    0.403717  -0.017318  -0.010667   0.002380  -0.000012  -0.000003
    20  H   -0.017318   0.404014  -0.037284  -0.008870   0.000020  -0.000003
    21  H   -0.010667  -0.037284   0.418953   0.012403  -0.000208   0.000003
    22  C    0.002380  -0.008870   0.012403  18.282217   0.926202   0.646488
    23  H   -0.000012   0.000020  -0.000208   0.926202   1.294972   0.038197
    24  H   -0.000003  -0.000003   0.000003   0.646488   0.038197   0.452704
    25  C   -0.001007   0.002719  -0.003737  -5.495010  -0.575637   0.011208
    26  H   -0.000003  -0.000002  -0.000013   0.049589   0.030629   0.003381
    27  H    0.000007   0.000000   0.000111  -0.195007  -0.048815   0.002208
    28  C   -0.000006  -0.000075  -0.000106   1.164605   0.114278  -0.006381
    29  H    0.000000   0.000000   0.000000  -0.008687   0.004321   0.001612
    30  H    0.000000   0.000000   0.000000  -0.072643  -0.010844   0.001168
    31  C    0.000004  -0.000013   0.000061  -0.225138  -0.049892   0.012472
    32  H    0.000000   0.000000   0.000000  -0.011091  -0.000614  -0.000054
    33  H    0.000000   0.000000   0.000000   0.007745   0.000164   0.000014
    34  H    0.000000   0.000000   0.000000   0.008434  -0.000010  -0.000032
             25         26         27         28         29         30
     1  S    0.286502   0.000743   0.002517  -0.062257   0.016964   0.003601
     2  O    0.206306  -0.063129   0.097239  -0.120355  -0.009154   0.014934
     3  O    0.145040  -0.000433   0.000932  -0.017127   0.000847   0.000305
     4  O   -0.089467  -0.000680   0.003603  -0.045857  -0.005174   0.000769
     5  O   -0.147410  -0.000582   0.002569   0.057337  -0.001004  -0.000109
     6  C   -0.063988   0.002423   0.003068  -0.020829   0.000287   0.000032
     7  H    0.009928  -0.000007   0.000005  -0.000175   0.000001   0.000000
     8  H   -0.002485   0.000000  -0.000037   0.000655  -0.000002   0.000000
     9  H   -0.068063   0.000135   0.000555  -0.003705   0.000024   0.000009
    10  C    0.211764  -0.032630   0.050832  -0.290872   0.000905   0.007439
    11  C   -0.257605   0.073388  -0.058114   0.194329  -0.001878  -0.004986
    12  C    0.453732  -0.030952   0.060622  -0.120509   0.009285  -0.000314
    13  N    0.319990   0.105235  -0.121330  -0.070508   0.000222  -0.004349
    14  H    0.021905  -0.005009   0.000802  -0.001051   0.000017   0.000108
    15  H   -0.002207  -0.000118   0.000055  -0.000363   0.000000   0.000001
    16  H    0.153361  -0.001011   0.001548  -0.015561   0.000079   0.000047
    17  N    0.030630  -0.003071   0.002688   0.015639   0.000156   0.000164
    18  C   -0.068144  -0.000451   0.002142   0.007730   0.000049   0.000014
    19  H   -0.001007  -0.000003   0.000007  -0.000006   0.000000   0.000000
    20  H    0.002719  -0.000002   0.000000  -0.000075   0.000000   0.000000
    21  H   -0.003737  -0.000013   0.000111  -0.000106   0.000000   0.000000
    22  C   -5.495010   0.049589  -0.195007   1.164605  -0.008687  -0.072643
    23  H   -0.575637   0.030629  -0.048815   0.114278   0.004321  -0.010844
    24  H    0.011208   0.003381   0.002208  -0.006381   0.001612   0.001168
    25  C   11.732922   0.205806   0.605554  -1.578413  -0.057980   0.061780
    26  H    0.205806   0.508801  -0.043028   0.048896   0.003767  -0.008234
    27  H    0.605554  -0.043028   0.464944  -0.143663  -0.000352   0.006021
    28  C   -1.578413   0.048896  -0.143663   7.026548   0.445443   0.351158
    29  H   -0.057980   0.003767  -0.000352   0.445443   0.413459  -0.024154
    30  H    0.061780  -0.008234   0.006021   0.351158  -0.024154   0.463771
    31  C    0.136178  -0.060310   0.043242  -0.463190  -0.068938  -0.032149
    32  H   -0.026204  -0.000598   0.002948  -0.001953  -0.006353   0.006612
    33  H    0.083535   0.000057  -0.000583  -0.111210  -0.004075  -0.004338
    34  H   -0.057331   0.001949   0.000876   0.028092   0.006029  -0.007008
             31         32         33         34
     1  S    0.009674   0.000722   0.000179  -0.000192
     2  O    0.057381   0.000870  -0.000308   0.000053
     3  O    0.001390   0.000001  -0.000001   0.000002
     4  O   -0.005939   0.000105  -0.000063  -0.000029
     5  O    0.006432  -0.000009  -0.000002   0.000003
     6  C   -0.002712  -0.000055  -0.000001   0.000004
     7  H    0.000055   0.000000   0.000000   0.000000
     8  H    0.000004   0.000000   0.000000   0.000000
     9  H   -0.000345   0.000000   0.000000   0.000000
    10  C   -0.052958   0.000612   0.000401  -0.000187
    11  C   -0.020753  -0.000240   0.000062  -0.000398
    12  C   -0.006742  -0.001323  -0.000001   0.002524
    13  N   -0.218413  -0.000420   0.001122  -0.000762
    14  H    0.001640   0.000002  -0.000002   0.000017
    15  H    0.000089   0.000000   0.000000   0.000000
    16  H    0.002699   0.000017  -0.000002   0.000000
    17  N    0.001697   0.000033  -0.000005   0.000020
    18  C    0.001166   0.000005  -0.000002   0.000021
    19  H    0.000004   0.000000   0.000000   0.000000
    20  H   -0.000013   0.000000   0.000000   0.000000
    21  H    0.000061   0.000000   0.000000   0.000000
    22  C   -0.225138  -0.011091   0.007745   0.008434
    23  H   -0.049892  -0.000614   0.000164  -0.000010
    24  H    0.012472  -0.000054   0.000014  -0.000032
    25  C    0.136178  -0.026204   0.083535  -0.057331
    26  H   -0.060310  -0.000598   0.000057   0.001949
    27  H    0.043242   0.002948  -0.000583   0.000876
    28  C   -0.463190  -0.001953  -0.111210   0.028092
    29  H   -0.068938  -0.006353  -0.004075   0.006029
    30  H   -0.032149   0.006612  -0.004338  -0.007008
    31  C    6.834206   0.381889   0.374601   0.361023
    32  H    0.381889   0.464662  -0.026741  -0.034932
    33  H    0.374601  -0.026741   0.448067  -0.028179
    34  H    0.361023  -0.034932  -0.028179   0.467080
 Mulliken atomic charges:
              1
     1  S    0.407749
     2  O    0.138634
     3  O   -0.132284
     4  O   -0.126569
     5  O    0.091840
     6  C   -1.029904
     7  H    0.342129
     8  H    0.307571
     9  H    0.411343
    10  C   -0.294957
    11  C   -0.270215
    12  C   -0.672938
    13  N    0.171513
    14  H    0.255044
    15  H    0.256031
    16  H    0.413778
    17  N    0.398506
    18  C   -0.752689
    19  H    0.280330
    20  H    0.303707
    21  H    0.284613
    22  C   -1.412531
    23  H    0.189974
    24  H    0.251059
    25  C   -0.184174
    26  H    0.215464
    27  H    0.255842
    28  C   -0.380543
    29  H    0.284285
    30  H    0.251195
    31  C   -1.018408
    32  H    0.252108
    33  H    0.259567
    34  H    0.252931
 Sum of Mulliken atomic charges =   0.00000
 Mulliken charges with hydrogens summed into heavy atoms:
              1
     1  S    0.407749
     2  O    0.328608
     3  O   -0.132284
     4  O   -0.126569
     5  O    0.091840
     6  C    0.031139
    10  C   -0.039913
    11  C   -0.014184
    12  C   -0.259160
    13  N    0.171513
    17  N    0.398506
    18  C    0.115961
    22  C   -1.161472
    25  C    0.287131
    28  C    0.154937
    31  C   -0.253802
 Sum of Mulliken charges with hydrogens summed into heavy atoms =   0.00000
 Electronic spatial extent (au):  <R**2>=           3921.7463
 Charge=              0.0000 electrons
 Dipole moment (field-independent basis, Debye):
    X=              7.7333    Y=             -6.9120    Z=              1.9071  Tot=             10.5459
 Quadrupole moment (field-independent basis, Debye-Ang):
   XX=            -96.8467   YY=           -118.1815   ZZ=           -104.7815
   XY=             -7.1333   XZ=              9.1004   YZ=              6.4683
 Traceless Quadrupole moment (field-independent basis, Debye-Ang):
   XX=              9.7565   YY=            -11.5783   ZZ=              1.8218
   XY=             -7.1333   XZ=              9.1004   YZ=              6.4683
 Octapole moment (field-independent basis, Debye-Ang**2):
  XXX=             97.0587  YYY=            -26.8683  ZZZ=              1.4453  XYY=             37.2263
  XXY=            -14.9844  XXZ=             14.0636  XZZ=             10.2706  YZZ=            -11.0467
  YYZ=             -2.4701  XYZ=             -1.2950
 Hexadecapole moment (field-independent basis, Debye-Ang**3):
 XXXX=          -2974.9349 YYYY=          -1771.9494 ZZZZ=           -534.8105 XXXY=           -127.2478
 XXXZ=             94.7807 YYYX=            -71.0078 YYYZ=             49.3020 ZZZX=             39.0043
 ZZZY=             19.8499 XXYY=           -766.4257 XXZZ=           -592.2241 YYZZ=           -373.5338
 XXYZ=             11.2060 YYXZ=             19.5780 ZZXY=            -22.5322
 N-N= 1.527368847836D+03 E-N=-5.784266442559D+03  KE= 1.163545773274D+03
 Calling FoFJK, ICntrl=      2127 FMM=F ISym2X=0 I1Cent= 0 IOpClX= 0 NMat=1 NMatS=1 NMatT=0.
 ***** Axes restored to original set *****
 -------------------------------------------------------------------
 Center     Atomic                   Forces (Hartrees/Bohr)
 Number     Number              X              Y              Z
 -------------------------------------------------------------------
      1       16          -0.051666857    0.241028924   -0.123993784
      2        8           0.395609467    0.413902742   -0.336965576
      3        8           0.019190313   -0.018885043    0.037602802
      4        8           0.032318994    0.016171299    0.025683534
      5        8          -0.009156355   -0.037105906   -0.010862509
      6        6           0.043461515    0.065549673   -0.021913887
      7        1           0.007642811    0.008291910   -0.012998085
      8        1           0.000442452    0.013268798    0.012486904
      9        1           0.054068251    0.080096889   -0.030047649
     10        6           0.004675789   -0.022071666   -0.003455906
     11        6           0.029590706   -0.026789576   -0.018628707
     12        6          -0.038161443   -0.093771416    0.086827729
     13        7           0.251019205   -0.352600362    0.164850707
     14        1          -0.011436416   -0.000637222   -0.003469925
     15        1           0.012836175    0.002486488    0.002458170
     16        1          -0.047097408   -0.047874821    0.031929920
     17        7           0.069359216   -0.033504703    0.033883034
     18        6          -0.010892994   -0.007440332   -0.008228333
     19        1           0.005417111   -0.010691193    0.002519850
     20        1           0.009002558    0.009179131   -0.008079216
     21        1          -0.003182480    0.004702680    0.011700682
     22        6          -0.388515992   -0.186982971    0.054382940
     23        1          -0.350047359    0.042105072    0.102321176
     24        1          -0.024351038   -0.017429529   -0.009796418
     25        6          -0.014077744   -0.012170976   -0.007480817
     26        1           0.001081452   -0.027487452    0.007900488
     27        1           0.006213411    0.004311598    0.016022100
     28        6           0.013755918   -0.018890080    0.027859160
     29        1           0.000108558    0.014883459   -0.003874127
     30        1          -0.004083543   -0.001898897   -0.016337574
     31        6           0.012060819    0.011100180   -0.020890758
     32        1           0.001926086    0.003007176    0.015315874
     33        1          -0.016031706    0.001738078    0.000714464
     34        1          -0.001079474   -0.015591950    0.002563736
 -------------------------------------------------------------------
 Cartesian Forces:  Max     0.413902742 RMS     0.104726076

 GradGradGradGradGradGradGradGradGradGradGradGradGradGradGradGradGradGrad
 Berny optimization.
 Internal  Forces:  Max     0.353406352 RMS     0.048226902
 Search for a local minimum.
 Step number   1 out of a maximum of  204
 All quantities printed in internal units (Hartrees-Bohrs-Radians)
 Mixed Optimization -- RFO/linear search
 Second derivative matrix not updated -- first step.
     Eigenvalues ---    0.00237   0.00237   0.00237   0.00487   0.00766
     Eigenvalues ---    0.01223   0.01988   0.02149   0.02626   0.02681
     Eigenvalues ---    0.02707   0.02855   0.03157   0.03270   0.03313
     Eigenvalues ---    0.03423   0.03554   0.03840   0.04273   0.04345
     Eigenvalues ---    0.04553   0.04896   0.05720   0.05720   0.06277
     Eigenvalues ---    0.06601   0.07203   0.07469   0.07537   0.07537
     Eigenvalues ---    0.07655   0.08191   0.09257   0.09674   0.09771
     Eigenvalues ---    0.10802   0.11279   0.11701   0.11889   0.12272
     Eigenvalues ---    0.12840   0.13286   0.15357   0.16000   0.16000
     Eigenvalues ---    0.16000   0.16000   0.16000   0.16000   0.16000
     Eigenvalues ---    0.16000   0.16117   0.16942   0.17118   0.18449
     Eigenvalues ---    0.19403   0.21343   0.21928   0.21948   0.22176
     Eigenvalues ---    0.25000   0.27756   0.28519   0.28519   0.28519
     Eigenvalues ---    0.28860   0.32907   0.35740   0.35979   0.37109
     Eigenvalues ---    0.37230   0.37230   0.37230   0.37230   0.37230
     Eigenvalues ---    0.37230   0.37230   0.37230   0.37230   0.37230
     Eigenvalues ---    0.37230   0.37230   0.37230   0.37230   0.37230
     Eigenvalues ---    0.37230   0.39084   0.45698   0.49476   0.55552
     Eigenvalues ---    0.58019   0.60740   0.64323   0.69956   0.87694
     Eigenvalues ---    0.876941000.000001000.000001000.000001000.00000
     Eigenvalues --- 1000.000001000.000001000.000001000.000001000.00000
     Eigenvalues --- 1000.000001000.000001000.000001000.000001000.00000
     Eigenvalues --- 1000.000001000.000001000.000001000.000001000.00000
     Eigenvalues --- 1000.000001000.000001000.000001000.000001000.00000
     Eigenvalues --- 1000.000001000.000001000.000001000.000001000.00000
     Eigenvalues --- 1000.000001000.000001000.000001000.000001000.00000
     Eigenvalues --- 1000.000001000.000001000.000001000.000001000.00000
     Eigenvalues --- 1000.000001000.000001000.000001000.000001000.00000
     Eigenvalues --- 1000.000001000.000001000.000001000.000001000.00000
     Eigenvalues --- 1000.000001000.000001000.000001000.000001000.00000
     Eigenvalues --- 1000.000001000.000001000.000001000.000001000.00000
     Eigenvalues --- 1000.000001000.000001000.000001000.000001000.00000
     Eigenvalues --- 1000.000001000.000001000.000001000.000001000.00000
     Eigenvalues --- 1000.000001000.000001000.000001000.000001000.00000
     Eigenvalues --- 1000.000001000.000001000.000001000.000001000.00000
     Eigenvalues --- 1000.000001000.000001000.000001000.000001000.00000
     Eigenvalues --- 1000.000001000.000001000.000001000.000001000.00000
     Eigenvalues --- 1000.000001000.000001000.000001000.000001000.00000
     Eigenvalues --- 1000.000001000.000001000.000001000.000001000.00000
     Eigenvalues --- 1000.000001000.000001000.000001000.000001000.00000
     Eigenvalues --- 1000.000001000.000001000.000001000.000001000.00000
     Eigenvalues --- 1000.000001000.000001000.000001000.000001000.00000
     Eigenvalues --- 1000.000001000.000001000.00000
 RFO step:  Lambda=-5.27878143D-01 EMin= 2.36823960D-03
 Linear search not attempted -- first point.
 Maximum step size (   0.300) exceeded in Quadratic search.
    -- Step size scaled by   0.391
 Iteration  1 RMS(Cart)=  0.03809688 RMS(Int)=  0.00029134
 Iteration  2 RMS(Cart)=  0.00040889 RMS(Int)=  0.00014173
 Iteration  3 RMS(Cart)=  0.00000016 RMS(Int)=  0.00014173
 Variable       Old X    -DE/DX   Delta X   Delta X   Delta X     New X
                                 (Linear)    (Quad)   (Total)
    R1        2.77714   0.05029   0.00000   0.02631   0.02592   2.80306
    R2        2.77714  -0.02851   0.00000  -0.00794  -0.00794   2.76920
    R3        2.77714  -0.02451   0.00000  -0.00683  -0.00683   2.77031
    R4        3.15584   0.00781   0.00000   0.00259   0.00231   3.15815
    R5        3.08292   0.19495   0.00000   0.08923   0.08945   3.17237
    R6        2.68202   0.35341   0.00000   0.14930   0.14994   2.83196
    R7        2.26547   0.27322   0.00000   0.08980   0.08965   2.35512
    R8        1.92772   0.19417   0.00000   0.08107   0.08153   2.00925
    R9        2.70231   0.04843   0.00000   0.01757   0.01749   2.71979
   R10        2.02201   0.01657   0.00000   0.00720   0.00720   2.02921
   R11        2.02201   0.01509   0.00000   0.00656   0.00656   2.02857
   R12        2.02201   0.09643   0.00000   0.03922   0.03926   2.06127
   R13        2.54692   0.17591   0.00000   0.09816   0.09826   2.64518
   R14        2.54200   0.04974   0.00000   0.01651   0.01652   2.55852
   R15        2.52236   0.03554   0.00000   0.01318   0.01320   2.53556
   R16        2.02201   0.00697   0.00000   0.00303   0.00303   2.02504
   R17        2.02201   0.00725   0.00000   0.00315   0.00315   2.02516
   R18        2.52236   0.03705   0.00000   0.01160   0.01158   2.53394
   R19        2.46001   0.03609   0.00000   0.01383   0.01410   2.47411
   R20        2.02201  -0.01423   0.00000  -0.00619  -0.00619   2.01582
   R21        2.46001   0.08528   0.00000   0.02837   0.02835   2.48836
   R22        2.77790   0.28494   0.00000   0.11066   0.11014   2.88804
   R23        2.77790  -0.00202   0.00000  -0.00089  -0.00089   2.77700
   R24        2.02201   0.01212   0.00000   0.00527   0.00527   2.02728
   R25        2.02201   0.01514   0.00000   0.00659   0.00659   2.02859
   R26        2.02201   0.01287   0.00000   0.00560   0.00560   2.02760
   R27        2.02201   0.16636   0.00000   0.05354   0.05337   2.07537
   R28        2.02201   0.02106   0.00000   0.00916   0.00916   2.03117
   R29        2.91018   0.03281   0.00000   0.01580   0.01580   2.92598
   R30        2.02201   0.02705   0.00000   0.01176   0.01176   2.03377
   R31        2.02201   0.01761   0.00000   0.00766   0.00766   2.02966
   R32        2.91018  -0.00865   0.00000  -0.00417  -0.00417   2.90601
   R33        2.02201   0.01459   0.00000   0.00634   0.00634   2.02835
   R34        2.02201   0.01654   0.00000   0.00719   0.00719   2.02920
   R35        2.91018   0.00013   0.00000   0.00006   0.00006   2.91024
[...]
   D88        3.14085  -0.00001  -0.00001   0.00195   0.00194  -3.14039
   D89       -1.10887  -0.00005   0.00000   0.00371   0.00370  -1.10517
   D90        1.01483  -0.00003  -0.00001   0.00452   0.00452   1.01935
   D91        1.05823   0.00004  -0.00001   0.00118   0.00117   1.05940
   D92        3.09169   0.00000   0.00000   0.00293   0.00293   3.09462
   D93       -1.06780   0.00002   0.00000   0.00375   0.00375  -1.06405
   D94        1.04423  -0.00004  -0.00001  -0.00252  -0.00254   1.04169
   D95        3.14003  -0.00003  -0.00001  -0.00550  -0.00551   3.13452
   D96       -1.04460  -0.00004   0.00000  -0.00591  -0.00591  -1.05051
   D97       -1.08030  -0.00001  -0.00001   0.00110   0.00109  -1.07921
   D98        1.01549  -0.00001   0.00000  -0.00188  -0.00188   1.01361
   D99        3.11406  -0.00002   0.00000  -0.00229  -0.00229   3.11177
   D100      -3.11649   0.00000   0.00000  -0.00150  -0.00150  -3.11799
   D101      -1.02069   0.00001   0.00000  -0.00447  -0.00447  -1.02516
   D102       1.07787   0.00000   0.00001  -0.00489  -0.00488   1.07299
         Item               Value     Threshold  Converged?
 Maximum Force            0.000561     0.000450     NO 
 RMS     Force            0.000099     0.000300     YES
 Maximum Displacement     0.042447     0.001800     NO 
 RMS     Displacement     0.009466     0.001200     NO 
 Predicted change in Energy=-2.878552D-05
 GradGradGradGradGradGradGradGradGradGradGradGradGradGradGradGradGradGrad

                          Input orientation:                          
 ---------------------------------------------------------------------
 Center     Atomic      Atomic             Coordinates (Angstroms)
 Number     Number       Type             X           Y           Z
 ---------------------------------------------------------------------
      1         16           0       -2.551085    1.337381    0.240179
      2          8           0       -2.692706   -0.167641   -0.240081
      3          8           0       -1.952623    2.078319   -0.832335
      4          8           0       -3.752214    1.773961    0.887774
      5          8           0       -1.458528    1.159594    1.396471
      6          6           0       -0.109267    0.922286    0.957980
      7          1           0        0.245011    1.766516    0.368607
      8          1           0        0.472057    0.828405    1.871863
      9          1           0       -0.063216    0.000169    0.375095
     10          6           0       -0.360590   -3.624607    0.146558
     11          6           0        0.781847   -3.356281    0.853399
     12          6           0       -0.917595   -2.232525    1.659819
     13          7           0       -1.414756   -2.916760    0.659204
     14          1           0       -0.480755   -4.287581   -0.696400
     15          1           0        1.795978   -3.710715    0.761671
     16          1           0       -1.458821   -1.537436    2.287836
     17          7           0        0.411958   -2.460527    1.829340
     18          6           0        1.273430   -1.878697    2.839542
     19          1           0        1.778762   -2.662816    3.403869
     20          1           0        2.020828   -1.228259    2.381206
     21          1           0        0.664659   -1.292315    3.526606
     22          6           0       -3.963893   -0.860960   -0.090384
     23          1           0       -4.756429   -0.227207   -0.492498
     24          1           0       -3.832171   -1.727820   -0.736374
     25          6           0       -4.269578   -1.284336    1.331249
     26          1           0       -3.538844   -2.032639    1.642137
     27          1           0       -4.203900   -0.421743    2.000312
     28          6           0       -5.675347   -1.882919    1.411835
     29          1           0       -6.407593   -1.131736    1.098551
     30          1           0       -5.757656   -2.717382    0.706855
     31          6           0       -6.010412   -2.367955    2.818691
     32          1           0       -5.957649   -1.544976    3.535308
     33          1           0       -7.017117   -2.786112    2.866130
     34          1           0       -5.310616   -3.141654    3.143619
 ---------------------------------------------------------------------
                    Distance matrix (angstroms):
                    1          2          3          4          5
     1  S    0.000000
     2  O    1.586127   0.000000
     3  O    1.434376   2.437791   0.000000
     4  O    1.432721   2.482827   2.507974   0.000000
     5  O    1.600719   2.441936   2.460846   2.428418   0.000000
     6  C    2.578763   3.049171   2.817730   3.741836   1.438434
     7  H    2.831749   3.569544   2.523703   4.030805   2.080121
     8  H    3.472872   3.932956   3.841100   4.439254   2.015649
     9  H    2.827690   2.705701   3.057197   4.125273   2.081914
    10  C    5.424791   4.187943   6.001347   6.418493   5.065208
    11  C    5.789209   4.841037   6.312995   6.846771   5.070240
    12  C    4.174673   3.320298   5.085812   4.968204   3.445059
    13  N    4.423183   3.162203   5.240688   5.245838   4.142722
    14  H    6.066601   4.698389   6.535255   7.067839   5.916745
    15  H    6.682229   5.805615   7.078544   7.802564   5.891917
    16  H    3.694660   3.128765   4.801353   4.264408   2.840511
    17  N    5.072392   4.379357   5.768612   6.013133   4.097727
    18  C    5.632651   5.304906   6.288726   6.512174   4.333273
    19  H    6.690149   6.284767   7.372043   7.523790   5.396343
    20  H    5.662941   5.496677   6.086758   6.676202   4.333297
    21  H    5.296878   5.169596   6.100140   5.989512   3.880368
    22  C    2.634009   1.455684   3.638002   2.818583   3.545453
    23  H    2.801480   2.079955   3.645856   2.630261   4.045686
    24  H    3.462700   1.994704   4.246010   3.860922   4.303530
    25  C    3.319194   2.490504   4.621344   3.133292   3.725460
    26  H    3.781294   2.781530   5.053621   3.886489   3.818170
    27  H    2.987370   2.714338   4.398005   2.502575   3.225263
    28  C    4.637254   3.816694   5.881019   4.164836   5.199874
    29  H    4.658969   4.064701   5.820612   3.941895   5.461886
    30  H    5.190470   4.097778   6.312379   4.922062   5.830010
    31  C    5.687282   5.020422   7.040241   5.097389   5.931776
    32  H    5.547119   5.177882   6.945848   4.784217   5.668458
    33  H    6.621499   5.933419   7.936651   5.947080   6.973264
    34  H    6.008888   5.210339   7.371055   5.628564   6.032566
                    6          7          8          9         10
     6  C    0.000000
     7  H    1.088852   0.000000
     8  H    1.087168   1.786444   0.000000
     9  H    1.091867   1.793049   1.792430   0.000000
    10  C    4.625560   5.429573   4.847607   3.644127   0.000000
    11  C    4.371631   5.173613   4.317967   3.494091   1.369958
    12  C    3.331487   4.360185   3.368292   2.713927   2.130283
    13  N    4.065937   4.977183   4.365418   3.227361   1.369351
    14  H    5.478840   6.189755   5.803201   4.439285   1.079145
    15  H    5.013302   5.706142   4.856841   4.168538   2.244229
    16  H    3.104842   4.183609   3.081968   2.823211   3.185509
    17  N    3.531907   4.475433   3.289756   2.897524   2.187160
    18  C    3.646592   4.522250   2.984460   3.374946   3.601442
    19  H    4.732862   5.584281   4.030279   4.433717   4.013968
    20  H    3.344806   4.021538   2.624498   3.142731   4.050591
    21  H    3.478687   4.416505   2.696799   3.483151   4.232664
    22  C    4.374606   4.982889   5.136344   4.021629   4.547272
    23  H    5.002132   5.452598   5.834517   4.778144   5.592326
    24  H    4.873798   5.482223   5.644782   4.292590   4.053301
    25  C    4.724055   5.533163   5.219104   4.500851   4.707500
    26  H    4.578389   5.511171   4.932106   4.221101   3.856478
    27  H    4.433834   5.219554   4.841895   4.468176   5.335333
    28  C    6.249513   7.032592   6.734500   6.009731   5.734200
    29  H    6.626286   7.293135   7.195120   6.485037   6.609610
    30  H    6.724176   7.500117   7.262175   6.318370   5.501392
    31  C    7.007956   7.888414   7.289418   6.851884   6.374948
    32  H    6.850808   7.711482   7.052738   6.864310   6.865535
    33  H    8.069178   8.927628   8.375024   7.894641   7.239372
    34  H    6.953176   7.915543   7.128678   6.713493   5.806754
                   11         12         13         14         15
    11  C    0.000000
    12  C    2.191174   0.000000
    13  N    2.248545   1.310182   0.000000
    14  H    2.205303   3.156874   2.142235   0.000000
    15  H    1.078193   3.217949   3.309030   2.764464   0.000000
    16  H    3.222793   1.081887   2.134694   4.174395   4.200719
    17  N    1.375374   1.359572   2.216811   3.242596   2.149046
    18  C    2.523821   2.513471   3.613557   4.624152   2.819023
    19  H    2.824824   3.239939   4.218558   4.955551   2.842463
    20  H    2.897887   3.187990   4.197567   5.008895   2.972547
    21  H    3.379308   2.621530   3.896766   5.302582   3.843619
    22  C    5.444208   3.771516   3.359509   4.923539   6.482532
    23  H    6.501926   4.836363   4.441496   5.899966   7.526075
    24  H    5.144747   3.806733   3.033993   4.217341   6.152404
    25  C    5.480711   3.498973   3.356555   5.242712   6.557645
    26  H    4.587211   2.628918   2.501914   4.461550   5.661403
    27  H    5.897846   3.767581   3.975299   6.006560   6.953424
    28  C    6.646654   4.777021   4.448361   6.100069   7.719084
    29  H    7.529724   5.627329   5.320503   6.950440   8.605998
    30  H    6.572273   4.956754   4.347735   5.681579   7.618865
    31  C    7.139604   5.224759   5.107311   6.827733   8.183768
    32  H    7.476247   5.421469   5.549022   7.444838   8.514824
    33  H    8.074653   6.242260   6.022793   7.594081   9.107924
    34  H    6.512241   4.725126   4.626080   6.275863   7.516728
                   16         17         18         19         20
    16  H    0.000000
    17  N    2.135914   0.000000
    18  C    2.808209   1.449541   0.000000
    19  H    3.604713   2.094807   1.090261   0.000000
    20  H    3.494605   2.100357   1.091670   1.778310   0.000000
    21  H    2.470588   2.075883   1.089267   1.770470   1.776299
    22  C    3.519792   5.039051   6.086856   6.959496   6.485411
    23  H    4.507901   6.090227   7.084427   7.988904   7.429097
    24  H    3.849010   5.013220   6.235150   7.035510   6.650298
    25  C    2.979845   4.852660   5.775219   6.540518   6.377677
    26  H    2.233528   3.978312   4.961397   5.637176   5.665968
    27  H    2.977062   5.048962   5.729587   6.540996   6.288305
    28  C    4.320397   6.128885   7.093932   7.755010   7.784560
    29  H    5.105814   6.986130   7.911202   8.641476   8.526007
    30  H    4.729879   6.276152   7.395128   8.004652   8.094798
    31  C    4.657097   6.498787   7.300286   7.816688   8.123492
    32  H    4.668586   6.657361   7.272136   7.817857   8.067735
    33  H    5.726104   7.508136   8.340101   8.813163   9.184035
    34  H    4.259367   5.910933   6.710976   7.110295   7.615276
                   21         22         23         24         25
    21  H    0.000000
    22  C    5.890007   0.000000
    23  H    6.831972   1.091536   0.000000
    24  H    6.211614   1.089082   1.779204   0.000000
    25  C    5.400589   1.514507   2.163469   2.159414   0.000000
    26  H    4.665698   2.134275   3.049388   2.415838   1.091138
    27  H    5.175938   2.149773   2.560709   3.055072   1.093629
    28  C    6.709453   2.496024   2.685569   2.834812   1.530027
    29  H    7.479170   2.731035   2.464945   3.217929   2.156047
    30  H    7.157370   2.701754   2.939706   2.601853   2.158209
    31  C    6.798141   3.862899   4.137541   4.218174   2.533223
    32  H    6.627132   4.193875   4.404846   4.774763   2.788439
    33  H    7.853492   4.665765   4.789477   4.923607   3.487142
    34  H    6.266630   4.180192   4.692811   4.386237   2.796083
                   26         27         28         29         30
    26  H    0.000000
    27  H    1.779206   0.000000
    28  C    2.154090   2.155573   0.000000
    29  H    3.055623   2.484657   1.094809   0.000000
    30  H    2.503349   3.058945   1.095491   1.757873   0.000000
    31  C    2.757783   2.778664   1.525376   2.155196   2.155420
    32  H    3.110069   2.587180   2.168649   2.512171   3.068335
    33  H    3.763544   3.775456   2.175104   2.496561   2.500687
    34  H    2.573624   3.151173   2.171755   3.070087   2.513498
                   31         32         33         34
    31  C    0.000000
    32  H    1.092529   0.000000
    33  H    1.091128   1.763715   0.000000
    34  H    1.092659   1.766763   1.765093   0.000000
 Stoichiometry    C9H18N2O4S
 Framework group  C1[X(C9H18N2O4S)]
 Deg. of freedom    96
 Full point group                 C1      NOp   1
 Largest Abelian subgroup         C1      NOp   1
 Largest concise Abelian subgroup C1      NOp   1
                         Standard orientation:                         
 ---------------------------------------------------------------------
 Center     Atomic      Atomic             Coordinates (Angstroms)
 Number     Number       Type             X           Y           Z
 ---------------------------------------------------------------------
      1         16           0        1.365475   -1.828574   -0.086759
      2          8           0        0.902353   -0.613512   -0.995021
      3          8           0        1.253614   -3.022795   -0.873371
      4          8           0        2.564045   -1.496741    0.624583
      5          8           0        0.187837   -1.831161    0.997428
      6          6           0       -1.080803   -2.339791    0.549163
      7          1           0       -0.979207   -3.380942    0.247037
      8          1           0       -1.738013   -2.258476    1.411368
      9          1           0       -1.454089   -1.733849   -0.278886
     10          6           0       -2.704896    1.432371   -1.578964
     11          6           0       -3.691089    0.901097   -0.790321
     12          6           0       -1.768641    0.907158    0.261059
     13          7           0       -1.509100    1.430378   -0.911739
     14          1           0       -2.791585    1.816733   -2.583605
     15          1           0       -4.744142    0.735726   -0.952284
     16          1           0       -1.051393    0.724234    1.050092
     17          7           0       -3.078554    0.568770    0.395433
     18          6           0       -3.710192   -0.023303    1.558038
     19          1           0       -4.556486    0.584025    1.879918
     20          1           0       -4.058042   -1.033854    1.335486
     21          1           0       -2.984568   -0.067285    2.369234
     22          6           0        1.734847    0.576385   -1.095589
     23          1           0        2.758607    0.268339   -1.315755
     24          1           0        1.314573    1.080050   -1.964951
     25          6           0        1.682410    1.468522    0.127142
     26          1           0        0.674933    1.876083    0.224448
     27          1           0        1.921000    0.888729    1.023211
     28          6           0        2.683357    2.616898   -0.015415
     29          1           0        3.693664    2.206865   -0.114200
     30          1           0        2.475402    3.169878   -0.937948
     31          6           0        2.632636    3.570480    1.174072
     32          1           0        2.861065    3.043471    2.103428
     33          1           0        3.354969    4.381011    1.065288
     34          1           0        1.640720    4.017189    1.276333
 ---------------------------------------------------------------------
 Rotational constants (GHZ):      0.4848315      0.3543487      0.2450138
 Standard basis: 6-311+G(d) (5D, 7F)
 There are   414 symmetry adapted basis functions of A   symmetry.
 Integral buffers will be    131072 words long.
 Raffenetti 2 integral format.
 Two-electron integral symmetry is turned on.
   414 basis functions,   680 primitive gaussians,   430 cartesian basis functions
    67 alpha electrons       67 beta electrons
       nuclear repulsion energy      1385.6057548279 Hartrees.
 NAtoms=   34 NActive=   34 NUniq=   34 SFac= 7.50D-01 NAtFMM=   80 NAOKFM=F Big=F
 One-electron integrals computed using PRISM.
 NBasis=   414 RedAO= T  NBF=   414
 NBsUse=   414 1.00D-06 NBFU=   414
 Initial guess read from the read-write file.
 B after Tr=     0.000000    0.000000    0.000000
         Rot=    1.000000    0.000000    0.000000    0.000000 Ang=   0.00 deg.
 Initial guess orbital symmetries:
       Occupied  (A) (A) (A) (A) (A) (A) (A) (A) (A) (A) (A) (A)
                 (A) (A) (A) (A) (A) (A) (A) (A) (A) (A) (A) (A)
                 (A) (A) (A) (A) (A) (A) (A) (A) (A) (A) (A) (A)
                 (A) (A) (A) (A) (A) (A) (A) (A) (A) (A) (A) (A)
                 (A) (A) (A) (A) (A) (A) (A) (A) (A) (A) (A) (A)
                 (A) (A) (A) (A) (A) (A) (A)
       Virtual   (A) (A) (A) (A) (A) (A) (A) (A) (A) (A) (A) (A)
                 (A) (A) (A) (A) (A) (A) (A) (A) (A) (A) (A) (A)
                 (A) (A) (A) (A) (A) (A) (A) (A) (A) (A) (A) (A)
                 (A) (A) (A) (A) (A) (A) (A) (A) (A) (A) (A) (A)
                 (A) (A) (A) (A) (A) (A) (A) (A) (A) (A) (A) (A)
                 (A) (A) (A) (A) (A) (A) (A) (A) (A) (A) (A) (A)
                 (A) (A) (A) (A) (A) (A) (A) (A) (A) (A) (A) (A)
                 (A) (A) (A) (A) (A) (A) (A) (A) (A) (A) (A) (A)
                 (A) (A) (A) (A) (A) (A) (A) (A) (A) (A) (A) (A)
                 (A) (A) (A) (A) (A) (A) (A) (A) (A) (A) (A) (A)
                 (A) (A) (A) (A) (A) (A) (A) (A) (A) (A) (A) (A)
                 (A) (A) (A) (A) (A) (A) (A) (A) (A) (A) (A) (A)
                 (A) (A) (A) (A) (A) (A) (A) (A) (A) (A) (A) (A)
                 (A) (A) (A) (A) (A) (A) (A) (A) (A) (A) (A) (A)
                 (A) (A) (A) (A) (A) (A) (A) (A) (A) (A) (A) (A)
                 (A) (A) (A) (A) (A) (A) (A) (A) (A) (A) (A) (A)
                 (A) (A) (A) (A) (A) (A) (A) (A) (A) (A) (A) (A)
                 (A) (A) (A) (A) (A) (A) (A) (A) (A) (A) (A) (A)
                 (A) (A) (A) (A) (A) (A) (A) (A) (A) (A) (A) (A)
                 (A) (A) (A) (A) (A) (A) (A) (A) (A) (A) (A) (A)
                 (A) (A) (A) (A) (A) (A) (A) (A) (A) (A) (A) (A)
                 (A) (A) (A) (A) (A) (A) (A) (A) (A) (A) (A) (A)
                 (A) (A) (A) (A) (A) (A) (A) (A) (A) (A) (A) (A)
                 (A) (A) (A) (A) (A) (A) (A) (A) (A) (A) (A) (A)
                 (A) (A) (A) (A) (A) (A) (A) (A) (A) (A) (A) (A)
                 (A) (A) (A) (A) (A) (A) (A) (A) (A) (A) (A) (A)
                 (A) (A) (A) (A) (A) (A) (A) (A) (A) (A) (A) (A)
                 (A) (A) (A) (A) (A) (A) (A) (A) (A) (A) (A) (A)
                 (A) (A) (A) (A) (A) (A) (A) (A) (A) (A) (A)
 Harris functional with IExCor= 1009 diagonalized for initial guess.
 ExpMin= 4.05D-02 ExpMax= 9.34D+04 ExpMxC= 3.17D+03 IAcc=2 IRadAn=         0 AccDes= 0.00D+00
 HarFok:  IExCor= 1009 AccDes= 0.00D+00 IRadAn=         0 IDoV= 1
 ScaDFX=  1.000000  1.000000  1.000000  1.000000
caDFX=  1.000000  1.000000  1.000000  1.000000
 FoFCou: FMM=F IPFlag=           0 FMFlag=      100000 FMFlg1=           0
         NFxFlg=           0 DoJE=T BraDBF=F KetDBF=T FulRan=T
         Omega=  0.000000  0.000000  1.000000  0.000000  0.000000 ICntrl=     500 IOpCl=  0
         NMat0=    1 NMatS0=    1 NMatT0=    0 NMatD0=    1 NMtDS0=    0 NMtDT0=    0
         I1Cent=           4 NGrid=           0.
 Petite list used in FoFCou.
 Requested convergence on RMS density matrix=1.00D-08 within 128 cycles.
 Requested convergence on MAX density matrix=1.00D-06.
 Requested convergence on             energy=1.00D-06.
 No special actions if energy rises.
