 Entering Gaussian System, Link 0=g09
 Input=Ethene_MP2_STO-3G.com
 Output=Ethene_MP2_STO-3G.log
 Initial command:
 /sw/contrib/gaussian/g09/E01/g09/l1.exe "/scr/Gau-5477.inp" -scrdir="/scr/"
 Entering Link 1 = /sw/contrib/gaussian/g09/E01/g09/l1.exe PID=      5478.
  
 Copyright (c) 1988,1990,1992,1993,1995,1998,2003,2009,2015,
            Gaussian, Inc.  All Rights Reserved.
  
 This is part of the Gaussian(R) 09 program.  It is based on
 the Gaussian(R) 03 system (copyright 2003, Gaussian, Inc.),
 the Gaussian(R) 98 system (copyright 1998, Gaussian, Inc.),
 the Gaussian(R) 94 system (copyright 1995, Gaussian, Inc.),
 the Gaussian 92(TM) system (copyright 1992, Gaussian, Inc.),
 the Gaussian 90(TM) system (copyright 1990, Gaussian, Inc.),
 the Gaussian 88(TM) system (copyright 1988, Gaussian, Inc.),
 the Gaussian 86(TM) system (copyright 1986, Carnegie Mellon
 University), and the Gaussian 82(TM) system (copyright 1983,
 Carnegie Mellon University). Gaussian is a federally registered
 trademark of Gaussian, Inc.
  
 This software contains proprietary and confidential information,
 including trade secrets, belonging to Gaussian, Inc.
  
 This software is provided under written license and may be
 used, copied, transmitted, or stored only in accord with that
 written license.
  
 The following legend is applicable only to US Government
 contracts under FAR:
  
                    RESTRICTED RIGHTS LEGEND
  
 Use, reproduction and disclosure by the US Government is
 subject to restrictions as set forth in subparagraphs (a)
 and (c) of the Commercial Computer Software - Restricted
 Rights clause in FAR 52.227-19.
  
 Gaussian, Inc.
 340 Quinnipiac St., Bldg. 40, Wallingford CT 06492
  
  
 ---------------------------------------------------------------
 Warning -- This program may not be used in any manner that
 competes with the business of Gaussian, Inc. or will provide
 assistance to any competitor of Gaussian, Inc.  The licensee
 of this program is prohibited from giving any competitor of
 Gaussian, Inc. access to this program.  By using this program,
 the user acknowledges that Gaussian, Inc. is engaged in the
 business of creating and licensing software in the field of
 computational chemistry and represents and warrants to the
 licensee that it is not a competitor of Gaussian, Inc. and that
 it will not use this program in any manner prohibited above.
 ---------------------------------------------------------------
  

 Cite this work as:
 Gaussian 09, Revision E.01,
 M. J. Frisch, G. W. Trucks, H. B. Schlegel, G. E. Scuseria, 
 M. A. Robb, J. R. Cheeseman, G. Scalmani, V. Barone, B. Mennucci, 
 G. A. Petersson, H. Nakatsuji, M. Caricato, X. Li, H. P. Hratchian, 
 A. F. Izmaylov, J. Bloino, G. Zheng, J. L. Sonnenberg, M. Hada, 
 M. Ehara, K. Toyota, R. Fukuda, J. Hasegawa, M. Ishida, T. Nakajima, 
 Y. Honda, O. Kitao, H. Nakai, T. Vreven, J. A. Montgomery, Jr., 
 J. E. Peralta, F. Ogliaro, M. Bearpark, J. J. Heyd, E. Brothers, 
 K. N. Kudin, V. N. Staroverov, T. Keith, R. Kobayashi, J. Normand, 
 K. Raghavachari, A. Rendell, J. C. Burant, S. S. Iyengar, J. Tomasi, 
 M. Cossi, N. Rega, J. M. Millam, M. Klene, J. E. Knox, J. B. Cross, 
 V. Bakken, C. Adamo, J. Jaramillo, R. Gomperts, R. E. Stratmann, 
 O. Yazyev, A. J. Austin, R. Cammi, C. Pomelli, J. W. Ochterski, 
 R. L. Martin, K. Morokuma, V. G. Zakrzewski, G. A. Voth, 
 P. Salvador, J. J. Dannenberg, S. Dapprich, A. D. Daniels, 
 O. Farkas, J. B. Foresman, J. V. Ortiz, J. Cioslowski, 
 and D. J. Fox, Gaussian, Inc., Wallingford CT, 2013.
 
 ******************************************
 Gaussian 09:  ES64L-G09RevE.01 30-Nov-2015
                21-Feb-2017 
 ******************************************
 %NProcShared=8
 Will use up to    8 processors via shared memory.
 -----------------
 #n MP2/STO-3G Opt
 -----------------
 1/18=20,19=15,38=1/1,3;
 2/9=110,12=2,17=6,18=5,40=1/2;
 3/6=3,11=9,16=1,25=1,30=1,71=1/1,2,3;
 4//1;
 5/5=2,38=5/2;
 8/6=4,10=1/1;
 9/15=2,16=-3/6;
 10/5=1/2;
 6/7=2,8=2,9=2,10=2/1;
 7/12=2/1,2,3,16;
 1/18=20,19=15/3(2);
 2/9=110/2;
 99//99;
 2/9=110/2;
 3/6=3,11=9,16=1,25=1,30=1,71=1/1,2,3;
 4/5=5,16=3,69=1/1;
 5/5=2,38=5/2;
 8/6=4,10=1/1;
 9/15=2,16=-3/6;
 10/5=1/2;
 7/12=2/1,2,3,16;
 1/18=20,19=15/3(-8);
 2/9=110/2;
 6/7=2,8=2,9=2,10=2/1;
 99//99;
 -----------------
 Ethene MP2 STO-3G
 -----------------
 Symbolic Z-matrix:
 Charge =  0 Multiplicity = 1
 C                    -9.63775   4.09195   0. 
 C                    -8.30677   4.06546   0. 
 H                    -10.16733   4.95037   0.40022 
 H                    -10.20106   3.25527  -0.40022 
 H                    -7.74346   4.90214   0.40022 
 H                    -7.7772    3.20703  -0.40022 
 

 GradGradGradGradGradGradGradGradGradGradGradGradGradGradGradGradGradGrad
 Berny optimization.
 Initialization pass.
                           ----------------------------
                           !    Initial Parameters    !
                           ! (Angstroms and Degrees)  !
 --------------------------                            --------------------------
 ! Name  Definition              Value          Derivative Info.                !
 --------------------------------------------------------------------------------
 ! R1    R(1,2)                  1.3312         estimate D2E/DX2                !
 ! R2    R(1,3)                  1.0851         estimate D2E/DX2                !
 ! R3    R(1,4)                  1.0851         estimate D2E/DX2                !
 ! R4    R(2,5)                  1.0851         estimate D2E/DX2                !
 ! R5    R(2,6)                  1.0851         estimate D2E/DX2                !
 ! A1    A(2,1,3)              120.2435         estimate D2E/DX2                !
 ! A2    A(2,1,4)              120.2429         estimate D2E/DX2                !
 ! A3    A(3,1,4)              119.5135         estimate D2E/DX2                !
 ! A4    A(1,2,5)              120.2429         estimate D2E/DX2                !
 ! A5    A(1,2,6)              120.2428         estimate D2E/DX2                !
 ! A6    A(5,2,6)              119.5142         estimate D2E/DX2                !
 ! D1    D(3,1,2,5)             -0.0003         estimate D2E/DX2                !
 ! D2    D(3,1,2,6)            179.9997         estimate D2E/DX2                !
 ! D3    D(4,1,2,5)            180.0            estimate D2E/DX2                !
 ! D4    D(4,1,2,6)              0.0            estimate D2E/DX2                !
 --------------------------------------------------------------------------------
 Trust Radius=3.00D-01 FncErr=1.00D-07 GrdErr=1.00D-07
 Number of steps in this run=     25 maximum allowed number of steps=    100.
 GradGradGradGradGradGradGradGradGradGradGradGradGradGradGradGradGradGrad

                          Input orientation:                          
 ---------------------------------------------------------------------
 Center     Atomic      Atomic             Coordinates (Angstroms)
 Number     Number       Type             X           Y           Z
 ---------------------------------------------------------------------
      1          6           0       -9.637750    4.091950    0.000000
      2          6           0       -8.306770    4.065460    0.000000
      3          1           0      -10.167330    4.950370    0.400220
      4          1           0      -10.201060    3.255270   -0.400220
      5          1           0       -7.743460    4.902140    0.400220
      6          1           0       -7.777200    3.207030   -0.400220
 ---------------------------------------------------------------------
                    Distance matrix (angstroms):
                    1          2          3          4          5
     1  C    0.000000
     2  C    1.331244   0.000000
     3  H    1.085134   2.098791   0.000000
     4  H    1.085139   2.098790   1.874888   0.000000
     5  H    2.098790   1.085139   2.424350   3.064748   0.000000
     6  H    2.098787   1.085137   3.064745   2.424340   1.874897
                    6
     6  H    0.000000
 Stoichiometry    C2H4
 Framework group  C1[X(C2H4)]
 Deg. of freedom    12
 Full point group                 C1      NOp   1
 Largest Abelian subgroup         C1      NOp   1
 Largest concise Abelian subgroup C1      NOp   1
                         Standard orientation:                         
 ---------------------------------------------------------------------
 Center     Atomic      Atomic             Coordinates (Angstroms)
 Number     Number       Type             X           Y           Z
 ---------------------------------------------------------------------
      1          6           0        0.665621   -0.000001   -0.000001
      2          6           0       -0.665622    0.000000    0.000000
      3          1           0        1.212177   -0.937441    0.000003
      4          1           0        1.212172    0.937447    0.000000
      5          1           0       -1.212173   -0.937448   -0.000001
      6          1           0       -1.212168    0.937449    0.000001
 ---------------------------------------------------------------------
 Rotational constants (GHZ):    142.6524209     30.5241454     25.1439518
 Standard basis: STO-3G (5D, 7F)
 There are    14 symmetry adapted cartesian basis functions of A   symmetry.
 There are    14 symmetry adapted basis functions of A   symmetry.
    14 basis functions,    42 primitive gaussians,    14 cartesian basis functions
     8 alpha electrons        8 beta electrons
       nuclear repulsion energy        33.4116325467 Hartrees.
 NAtoms=    6 NActive=    6 NUniq=    6 SFac= 1.00D+00 NAtFMM=   60 NAOKFM=F Big=F
 Integral buffers will be    131072 words long.
 Raffenetti 1 integral format.
 Two-electron integral symmetry is turned on.
 One-electron integrals computed using PRISM.
 NBasis=    14 RedAO= T EigKep=  1.88D-01  NBF=    14
 NBsUse=    14 1.00D-06 EigRej= -1.00D+00 NBFU=    14
 ExpMin= 1.69D-01 ExpMax= 7.16D+01 ExpMxC= 7.16D+01 IAcc=1 IRadAn=         1 AccDes= 0.00D+00
 Harris functional with IExCor=  205 and IRadAn=       1 diagonalized for initial guess.
 HarFok:  IExCor=  205 AccDes= 0.00D+00 IRadAn=         1 IDoV= 1 UseB2=F ITyADJ=14
 ICtDFT=  3500011 ScaDFX=  1.000000  1.000000  1.000000  1.000000
 FoFCou: FMM=F IPFlag=           0 FMFlag=      100000 FMFlg1=           0
         NFxFlg=           0 DoJE=T BraDBF=F KetDBF=T FulRan=T
         wScrn=  0.000000 ICntrl=     500 IOpCl=  0 I1Cent=   200000004 NGrid=           0
         NMat0=    1 NMatS0=      1 NMatT0=    0 NMatD0=    1 NMtDS0=    0 NMtDT0=    0
 Petite list used in FoFCou.
 Keep R1 ints in memory in canonical form, NReq=831627.
 Requested convergence on RMS density matrix=1.00D-08 within 128 cycles.
 Requested convergence on MAX density matrix=1.00D-06.
 Requested convergence on             energy=1.00D-06.
 No special actions if energy rises.
 SCF Done:  E(RHF) =  -77.0721063088     A.U. after    7 cycles
            NFock=  7  Conv=0.74D-08     -V/T= 2.0064
 ExpMin= 1.69D-01 ExpMax= 7.16D+01 ExpMxC= 7.16D+01 IAcc=3 IRadAn=         5 AccDes= 0.00D+00
 HarFok:  IExCor=  205 AccDes= 0.00D+00 IRadAn=         5 IDoV=-2 UseB2=F ITyADJ=14
 ICtDFT= 12500011 ScaDFX=  1.000000  1.000000  1.000000  1.000000
 Range of M.O.s used for correlation:     3    14
 NBasis=    14 NAE=     8 NBE=     8 NFC=     2 NFV=     0
 NROrb=     12 NOA=     6 NOB=     6 NVA=     6 NVB=     6
 Fully direct method using O(ONN) memory.
 JobTyp=1 Pass  1:  I=   3 to   8 NPSUse=  3 ParTrn=F ParDer=T DoDerP=T.
 Spin components of T(2) and E(2):
     alpha-alpha T2 =       0.3335155476D-02 E2=     -0.7879921071D-02
     alpha-beta  T2 =       0.5019453985D-01 E2=     -0.1061439268D+00
     beta-beta   T2 =       0.3335155476D-02 E2=     -0.7879921071D-02
 ANorm=    0.1028039324D+01
 E2 =    -0.1219037689D+00 EUMP2 =    -0.77194010077694D+02
          IDoAtm=111111
          Differentiating once with respect to electric field.
                with respect to dipole field.
          Differentiating once with respect to nuclear coordinates.
 Keep R1 ints in memory in canonical form, NReq=814237.
          There are     1 degrees of freedom in the 1st order CPHF.  IDoFFX=0 NUNeed=     1.
 LinEq1:  Iter=  0 NonCon=     1 RMS=3.05D-03 Max=1.36D-02 NDo=     1
 AX will form     1 AO Fock derivatives at one time.
 LinEq1:  Iter=  1 NonCon=     1 RMS=6.94D-05 Max=3.00D-04 NDo=     1
 LinEq1:  Iter=  2 NonCon=     1 RMS=5.74D-06 Max=2.18D-05 NDo=     1
 LinEq1:  Iter=  3 NonCon=     1 RMS=4.55D-07 Max=1.73D-06 NDo=     1
 LinEq1:  Iter=  4 NonCon=     1 RMS=4.56D-08 Max=2.00D-07 NDo=     1
 LinEq1:  Iter=  5 NonCon=     1 RMS=3.21D-09 Max=1.29D-08 NDo=     1
 LinEq1:  Iter=  6 NonCon=     0 RMS=8.87D-11 Max=3.10D-10 NDo=     1
 Linear equations converged to 1.000D-10 1.000D-09 after     6 iterations.
 End of Minotr F.D. properties file   721 does not exist.
 End of Minotr F.D. properties file   722 does not exist.
 End of Minotr F.D. properties file   788 does not exist.

 **********************************************************************

            Population analysis using the SCF density.

 **********************************************************************

 Orbital symmetries:
       Occupied  (A) (A) (A) (A) (A) (A) (A) (A)
       Virtual   (A) (A) (A) (A) (A) (A)
 The electronic state is 1-A.
 Alpha  occ. eigenvalues --  -11.01884 -11.01800  -0.97955  -0.74062  -0.60674
 Alpha  occ. eigenvalues --   -0.52491  -0.46409  -0.32542
 Alpha virt. eigenvalues --    0.32060   0.63816   0.67773   0.69141   0.94918
 Alpha virt. eigenvalues --    0.98646
          Condensed to atoms (all electrons):
               1          2          3          4          5          6
     1  C    4.792913   0.600436   0.392681   0.392680  -0.026552  -0.026552
     2  C    0.600436   4.792912  -0.026552  -0.026552   0.392680   0.392681
     3  H    0.392681  -0.026552   0.596303  -0.022258  -0.005013   0.002036
     4  H    0.392680  -0.026552  -0.022258   0.596306   0.002036  -0.005013
     5  H   -0.026552   0.392680  -0.005013   0.002036   0.596305  -0.022258
     6  H   -0.026552   0.392681   0.002036  -0.005013  -0.022258   0.596304
 Mulliken charges:
               1
     1  C   -0.125605
     2  C   -0.125605
     3  H    0.062803
     4  H    0.062802
     5  H    0.062802
     6  H    0.062803
 Sum of Mulliken charges =   0.00000
 Mulliken charges with hydrogens summed into heavy atoms:
               1
     1  C   -0.000001
     2  C    0.000001
 Electronic spatial extent (au):  <R**2>=             80.2469
 Charge=              0.0000 electrons
 Dipole moment (field-independent basis, Debye):
    X=              0.0000    Y=              0.0000    Z=              0.0000  Tot=              0.0000
 Quadrupole moment (field-independent basis, Debye-Ang):
   XX=            -12.0912   YY=            -11.7130   ZZ=            -13.4788
   XY=              0.0000   XZ=              0.0000   YZ=              0.0000
 Traceless Quadrupole moment (field-independent basis, Debye-Ang):
   XX=              0.3365   YY=              0.7146   ZZ=             -1.0511
   XY=              0.0000   XZ=              0.0000   YZ=              0.0000
 Octapole moment (field-independent basis, Debye-Ang**2):
  XXX=              0.0000  YYY=              0.0000  ZZZ=              0.0000  XYY=              0.0000
  XXY=              0.0000  XXZ=              0.0000  XZZ=              0.0000  YZZ=              0.0000
  YYZ=              0.0000  XYZ=              0.0000
 Hexadecapole moment (field-independent basis, Debye-Ang**3):
 XXXX=            -63.2764 YYYY=            -24.1637 ZZZZ=            -10.8928 XXXY=              0.0000
 XXXZ=              0.0000 YYYX=              0.0000 YYYZ=              0.0000 ZZZX=              0.0000
 ZZZY=              0.0000 XXYY=            -12.3547 XXZZ=            -12.7496 YYZZ=             -6.3934
 XXYZ=              0.0000 YYXZ=              0.0000 ZZXY=              0.0000
 N-N= 3.341163254672D+01 E-N=-2.461902375619D+02  KE= 7.657912793711D+01
 Calling FoFJK, ICntrl=  10002127 FMM=F ISym2X=0 I1Cent= 0 IOpClX= 0 NMat=1 NMatS=1 NMatT=0.
 ***** Axes restored to original set *****
 -------------------------------------------------------------------
 Center     Atomic                   Forces (Hartrees/Bohr)
 Number     Number              X              Y              Z
 -------------------------------------------------------------------
      1        6          -0.002427441    0.000043824   -0.000001742
      2        6           0.002426924   -0.000046208    0.000000886
      3        1          -0.010095497    0.006079052    0.002774352
      4        1          -0.010327424   -0.005668596   -0.002772715
      5        1           0.010328037    0.005668114    0.002772589
      6        1           0.010095400   -0.006076186   -0.002773371
 -------------------------------------------------------------------
 Cartesian Forces:  Max     0.010328037 RMS     0.005763129

 GradGradGradGradGradGradGradGradGradGradGradGradGradGradGradGradGradGrad
 Berny optimization.
 FormGI is forming the generalized inverse of G from B-inverse, IUseBI=4.
 Internal  Forces:  Max     0.022854877 RMS     0.008786072
 Search for a local minimum.
 Step number   1 out of a maximum of   25
 All quantities printed in internal units (Hartrees-Bohrs-Radians)
 Mixed Optimization -- RFO/linear search
 Second derivative matrix not updated -- first step.
 The second derivative matrix:
                          R1        R2        R3        R4        R5
           R1           0.59213
           R2           0.00000   0.35381
           R3           0.00000   0.00000   0.35380
           R4           0.00000   0.00000   0.00000   0.35380
           R5           0.00000   0.00000   0.00000   0.00000   0.35381
           A1           0.00000   0.00000   0.00000   0.00000   0.00000
           A2           0.00000   0.00000   0.00000   0.00000   0.00000
           A3           0.00000   0.00000   0.00000   0.00000   0.00000
           A4           0.00000   0.00000   0.00000   0.00000   0.00000
           A5           0.00000   0.00000   0.00000   0.00000   0.00000
           A6           0.00000   0.00000   0.00000   0.00000   0.00000
           D1           0.00000   0.00000   0.00000   0.00000   0.00000
           D2           0.00000   0.00000   0.00000   0.00000   0.00000
           D3           0.00000   0.00000   0.00000   0.00000   0.00000
           D4           0.00000   0.00000   0.00000   0.00000   0.00000
                          A1        A2        A3        A4        A5
           A1           0.16000
           A2           0.00000   0.16000
           A3           0.00000   0.00000   0.16000
           A4           0.00000   0.00000   0.00000   0.16000
           A5           0.00000   0.00000   0.00000   0.00000   0.16000
           A6           0.00000   0.00000   0.00000   0.00000   0.00000
           D1           0.00000   0.00000   0.00000   0.00000   0.00000
           D2           0.00000   0.00000   0.00000   0.00000   0.00000
           D3           0.00000   0.00000   0.00000   0.00000   0.00000
           D4           0.00000   0.00000   0.00000   0.00000   0.00000
                          A6        D1        D2        D3        D4
           A6           0.16000
           D1           0.00000   0.02998
           D2           0.00000   0.00000   0.02998
           D3           0.00000   0.00000   0.00000   0.02998
           D4           0.00000   0.00000   0.00000   0.00000   0.02998
 ITU=  0
     Eigenvalues ---    0.02998   0.02998   0.02998   0.16000   0.16000
     Eigenvalues ---    0.16000   0.16000   0.35380   0.35380   0.35381
     Eigenvalues ---    0.35381   0.59213
 RFO step:  Lambda=-3.23217162D-03 EMin= 2.99827130D-02
 Linear search not attempted -- first point.
 Iteration  1 RMS(Cart)=  0.03965300 RMS(Int)=  0.00041512
 Iteration  2 RMS(Cart)=  0.00046206 RMS(Int)=  0.00000010
 Iteration  3 RMS(Cart)=  0.00000011 RMS(Int)=  0.00000000
 Variable       Old X    -DE/DX   Delta X   Delta X   Delta X     New X
                                 (Linear)    (Quad)   (Total)
    R1        2.51569   0.02285   0.00000   0.03839   0.03839   2.55407
    R2        2.05061   0.01076   0.00000   0.03013   0.03013   2.08074
    R3        2.05062   0.01075   0.00000   0.03012   0.03012   2.08074
    R4        2.05062   0.01075   0.00000   0.03012   0.03012   2.08074
    R5        2.05061   0.01076   0.00000   0.03013   0.03013   2.08074
    A1        2.09865   0.00379   0.00000   0.02324   0.02324   2.12189
    A2        2.09864   0.00380   0.00000   0.02325   0.02325   2.12189
    A3        2.08590  -0.00759   0.00000  -0.04649  -0.04649   2.03941
    A4        2.09864   0.00380   0.00000   0.02325   0.02325   2.12189
    A5        2.09863   0.00380   0.00000   0.02325   0.02325   2.12188
    A6        2.08592  -0.00759   0.00000  -0.04650  -0.04650   2.03942
    D1       -0.00001   0.00000   0.00000   0.00001   0.00001   0.00000
    D2        3.14159   0.00000   0.00000   0.00001   0.00001  -3.14159
    D3        3.14159   0.00000   0.00000   0.00000   0.00000   3.14159
    D4        0.00000   0.00000   0.00000   0.00000   0.00000   0.00000
         Item               Value     Threshold  Converged?
 Maximum Force            0.022855     0.000450     NO 
 RMS     Force            0.008786     0.000300     NO 
 Maximum Displacement     0.075876     0.001800     NO 
 RMS     Displacement     0.039806     0.001200     NO 
 Predicted change in Energy=-1.634813D-03
 GradGradGradGradGradGradGradGradGradGradGradGradGradGradGradGradGradGrad

                          Input orientation:                          
 ---------------------------------------------------------------------
 Center     Atomic      Atomic             Coordinates (Angstroms)
 Number     Number       Type             X           Y           Z
 ---------------------------------------------------------------------
      1          6           0       -9.647906    4.092149    0.000001
      2          6           0       -8.296616    4.065257    0.000000
      3          1           0      -10.207458    4.951737    0.400486
      4          1           0      -10.241212    3.255505   -0.400486
      5          1           0       -7.703310    4.901902    0.400486
      6          1           0       -7.737067    3.205670   -0.400487
 ---------------------------------------------------------------------
                    Distance matrix (angstroms):
                    1          2          3          4          5
     1  C    0.000000
     2  C    1.351558   0.000000
     3  H    1.101080   2.144190   0.000000
     4  H    1.101079   2.144188   1.876139   0.000000
     5  H    2.144188   1.101079   2.504644   3.129397   0.000000
     6  H    2.144188   1.101079   3.129399   2.504641   1.876140
                    6
     6  H    0.000000
 Stoichiometry    C2H4
 Framework group  C1[X(C2H4)]
 Deg. of freedom    12
 Full point group                 C1      NOp   1
 Largest Abelian subgroup         C1      NOp   1
 Largest concise Abelian subgroup C1      NOp   1
                         Standard orientation:                         
 ---------------------------------------------------------------------
 Center     Atomic      Atomic             Coordinates (Angstroms)
 Number     Number       Type             X           Y           Z
 ---------------------------------------------------------------------
      1          6           0        0.675779    0.000000    0.000000
      2          6           0       -0.675779    0.000000    0.000000
      3          1           0        1.252323   -0.938069   -0.000001
      4          1           0        1.252320    0.938070    0.000000
      5          1           0       -1.252320   -0.938070    0.000000
      6          1           0       -1.252321    0.938070   -0.000001
 ---------------------------------------------------------------------
 Rotational constants (GHZ):    142.4629048     29.2421188     24.2620577
 Standard basis: STO-3G (5D, 7F)
 There are    14 symmetry adapted cartesian basis functions of A   symmetry.
 There are    14 symmetry adapted basis functions of A   symmetry.
    14 basis functions,    42 primitive gaussians,    14 cartesian basis functions
     8 alpha electrons        8 beta electrons
       nuclear repulsion energy        32.8774662900 Hartrees.
 NAtoms=    6 NActive=    6 NUniq=    6 SFac= 1.00D+00 NAtFMM=   60 NAOKFM=F Big=F
 Integral buffers will be    131072 words long.
 Raffenetti 1 integral format.
 Two-electron integral symmetry is turned on.
 One-electron integrals computed using PRISM.
 NBasis=    14 RedAO= T EigKep=  2.00D-01  NBF=    14
 NBsUse=    14 1.00D-06 EigRej= -1.00D+00 NBFU=    14
 Initial guess from the checkpoint file:  "/scr/Gau-5478.chk"
 B after Tr=     0.000000    0.000000    0.000000
         Rot=    1.000000    0.000000    0.000000    0.000000 Ang=   0.00 deg.
 ExpMin= 1.69D-01 ExpMax= 7.16D+01 ExpMxC= 7.16D+01 IAcc=1 IRadAn=         1 AccDes= 0.00D+00
 Harris functional with IExCor=  205 and IRadAn=       1 diagonalized for initial guess.
 HarFok:  IExCor=  205 AccDes= 0.00D+00 IRadAn=         1 IDoV= 1 UseB2=F ITyADJ=14
 ICtDFT=  3500011 ScaDFX=  1.000000  1.000000  1.000000  1.000000
 FoFCou: FMM=F IPFlag=           0 FMFlag=      100000 FMFlg1=           0
         NFxFlg=           0 DoJE=T BraDBF=F KetDBF=T FulRan=T
         wScrn=  0.000000 ICntrl=     500 IOpCl=  0 I1Cent=   200000004 NGrid=           0
         NMat0=    1 NMatS0=      1 NMatT0=    0 NMatD0=    1 NMtDS0=    0 NMtDT0=    0
 Petite list used in FoFCou.
 Keep R1 ints in memory in canonical form, NReq=831627.
 Requested convergence on RMS density matrix=1.00D-08 within 128 cycles.
 Requested convergence on MAX density matrix=1.00D-06.
 Requested convergence on             energy=1.00D-06.
 No special actions if energy rises.
 SCF Done:  E(RHF) =  -77.0695742510     A.U. after    7 cycles
            NFock=  7  Conv=0.34D-08     -V/T= 2.0076
 ExpMin= 1.69D-01 ExpMax= 7.16D+01 ExpMxC= 7.16D+01 IAcc=3 IRadAn=         5 AccDes= 0.00D+00
 HarFok:  IExCor=  205 AccDes= 0.00D+00 IRadAn=         5 IDoV=-2 UseB2=F ITyADJ=14
 ICtDFT= 12500011 ScaDFX=  1.000000  1.000000  1.000000  1.000000
 Range of M.O.s used for correlation:     3    14
 NBasis=    14 NAE=     8 NBE=     8 NFC=     2 NFV=     0
 NROrb=     12 NOA=     6 NOB=     6 NVA=     6 NVB=     6
 Fully direct method using O(ONN) memory.
 JobTyp=1 Pass  1:  I=   3 to   8 NPSUse=  3 ParTrn=F ParDer=T DoDerP=T.
 Spin components of T(2) and E(2):
     alpha-alpha T2 =       0.3533558373D-02 E2=     -0.8180080577D-02
     alpha-beta  T2 =       0.5286041504D-01 E2=     -0.1094188050D+00
     beta-beta   T2 =       0.3533558373D-02 E2=     -0.8180080577D-02
 ANorm=    0.1029527820D+01
 E2 =    -0.1257789662D+00 EUMP2 =    -0.77195353217184D+02
          IDoAtm=111111
          Differentiating once with respect to electric field.
                with respect to dipole field.
          Differentiating once with respect to nuclear coordinates.
 Keep R1 ints in memory in canonical form, NReq=814237.
          There are     1 degrees of freedom in the 1st order CPHF.  IDoFFX=0 NUNeed=     1.
 LinEq1:  Iter=  0 NonCon=     1 RMS=3.22D-03 Max=1.48D-02 NDo=     1
 AX will form     1 AO Fock derivatives at one time.
 LinEq1:  Iter=  1 NonCon=     1 RMS=7.86D-05 Max=3.68D-04 NDo=     1
 LinEq1:  Iter=  2 NonCon=     1 RMS=8.31D-06 Max=3.22D-05 NDo=     1
 LinEq1:  Iter=  3 NonCon=     1 RMS=4.83D-07 Max=1.89D-06 NDo=     1
 LinEq1:  Iter=  4 NonCon=     1 RMS=4.27D-08 Max=1.65D-07 NDo=     1
 LinEq1:  Iter=  5 NonCon=     1 RMS=3.36D-09 Max=1.41D-08 NDo=     1
 LinEq1:  Iter=  6 NonCon=     1 RMS=6.18D-10 Max=3.49D-09 NDo=     1
 LinEq1:  Iter=  7 NonCon=     0 RMS=5.47D-11 Max=1.62D-10 NDo=     1
 Linear equations converged to 1.000D-10 1.000D-09 after     7 iterations.
 End of Minotr F.D. properties file   721 does not exist.
 End of Minotr F.D. properties file   722 does not exist.
 End of Minotr F.D. properties file   788 does not exist.
 Calling FoFJK, ICntrl=  10002127 FMM=F ISym2X=0 I1Cent= 0 IOpClX= 0 NMat=1 NMatS=1 NMatT=0.
 ***** Axes restored to original set *****
 -------------------------------------------------------------------
 Center     Atomic                   Forces (Hartrees/Bohr)
 Number     Number              X              Y              Z
 -------------------------------------------------------------------
      1        6           0.006424160   -0.000127052    0.000000175
      2        6          -0.006424939    0.000127574   -0.000000194
      3        1           0.000781130   -0.001918894   -0.000898299
      4        1           0.000856132    0.001885449    0.000898058
      5        1          -0.000855974   -0.001885479   -0.000898014
      6        1          -0.000780508    0.001918401    0.000898275
 -------------------------------------------------------------------
 Cartesian Forces:  Max     0.006424939 RMS     0.002391725

 GradGradGradGradGradGradGradGradGradGradGradGradGradGradGradGradGradGrad
 Berny optimization.
 Using GEDIIS/GDIIS optimizer.
 FormGI is forming the generalized inverse of G from B-inverse, IUseBI=4.
 Internal  Forces:  Max     0.008063019 RMS     0.002390063
 Search for a local minimum.
 Step number   2 out of a maximum of   25
 All quantities printed in internal units (Hartrees-Bohrs-Radians)
 Mixed Optimization -- RFO/linear search
 Update second derivatives using D2CorX and points    1    2
 DE= -1.34D-03 DEPred=-1.63D-03 R= 8.22D-01
 TightC=F SS=  1.41D+00  RLast= 1.08D-01 DXNew= 5.0454D-01 3.2296D-01
 Trust test= 8.22D-01 RLast= 1.08D-01 DXMaxT set to 3.23D-01
 The second derivative matrix:
                          R1        R2        R3        R4        R5
           R1           0.68660
           R2           0.03171   0.36339
           R3           0.03169   0.00958   0.36337
           R4           0.03169   0.00957   0.00957   0.36337
           R5           0.03170   0.00958   0.00957   0.00957   0.36338
           A1           0.00266  -0.00019  -0.00019  -0.00019  -0.00019
           A2           0.00266  -0.00019  -0.00019  -0.00019  -0.00019
           A3          -0.00531   0.00037   0.00037   0.00037   0.00037
           A4           0.00266  -0.00019  -0.00019  -0.00019  -0.00019
           A5           0.00266  -0.00019  -0.00019  -0.00019  -0.00019
           A6          -0.00531   0.00037   0.00037   0.00037   0.00037
           D1           0.00000   0.00000   0.00000   0.00000   0.00000
           D2           0.00000   0.00000   0.00000   0.00000   0.00000
           D3           0.00000   0.00000   0.00000   0.00000   0.00000
           D4           0.00000   0.00000   0.00000   0.00000   0.00000
                          A1        A2        A3        A4        A5
           A1           0.15898
           A2          -0.00102   0.15898
           A3           0.00204   0.00204   0.15592
           A4          -0.00102  -0.00102   0.00204   0.15898
           A5          -0.00102  -0.00102   0.00204  -0.00102   0.15898
           A6           0.00204   0.00204  -0.00408   0.00204   0.00204
           D1           0.00000   0.00000   0.00000   0.00000   0.00000
           D2           0.00000   0.00000   0.00000   0.00000   0.00000
           D3           0.00000   0.00000   0.00000   0.00000   0.00000
           D4           0.00000   0.00000   0.00000   0.00000   0.00000
                          A6        D1        D2        D3        D4
           A6           0.15592
           D1           0.00000   0.02998
           D2           0.00000   0.00000   0.02998
           D3           0.00000   0.00000   0.00000   0.02998
           D4           0.00000   0.00000   0.00000   0.00000   0.02998
 ITU=  1  0
 Use linear search instead of GDIIS.
     Eigenvalues ---    0.02998   0.02998   0.02998   0.14757   0.16000
     Eigenvalues ---    0.16000   0.16000   0.35380   0.35381   0.35381
     Eigenvalues ---    0.37908   0.69980
 RFO step:  Lambda=-6.77035055D-05 EMin= 2.99827130D-02
 Quartic linear search produced a step of -0.13820.
 Iteration  1 RMS(Cart)=  0.00450285 RMS(Int)=  0.00000425
 Iteration  2 RMS(Cart)=  0.00000519 RMS(Int)=  0.00000000
 Iteration  3 RMS(Cart)=  0.00000000 RMS(Int)=  0.00000000
 Variable       Old X    -DE/DX   Delta X   Delta X   Delta X     New X
                                 (Linear)    (Quad)   (Total)
    R1        2.55407  -0.00806  -0.00531  -0.00570  -0.01101   2.54307
    R2        2.08074  -0.00222  -0.00416  -0.00071  -0.00488   2.07586
    R3        2.08074  -0.00222  -0.00416  -0.00071  -0.00487   2.07586
    R4        2.08074  -0.00222  -0.00416  -0.00071  -0.00487   2.07586
    R5        2.08074  -0.00222  -0.00416  -0.00071  -0.00487   2.07586
    A1        2.12189   0.00028  -0.00321   0.00505   0.00184   2.12373
    A2        2.12189   0.00028  -0.00321   0.00506   0.00184   2.12373
    A3        2.03941  -0.00056   0.00643  -0.01011  -0.00368   2.03573
    A4        2.12189   0.00028  -0.00321   0.00506   0.00184   2.12373
    A5        2.12188   0.00028  -0.00321   0.00506   0.00184   2.12373
    A6        2.03942  -0.00056   0.00643  -0.01011  -0.00368   2.03573
    D1        0.00000   0.00000   0.00000   0.00000   0.00000   0.00000
    D2       -3.14159   0.00000   0.00000   0.00000   0.00000   3.14159
    D3        3.14159   0.00000   0.00000   0.00000   0.00000  -3.14159
    D4        0.00000   0.00000   0.00000   0.00000   0.00000   0.00000
         Item               Value     Threshold  Converged?
 Maximum Force            0.008063     0.000450     NO 
 RMS     Force            0.002390     0.000300     NO 
 Maximum Displacement     0.005664     0.001800     NO 
 RMS     Displacement     0.004505     0.001200     NO 
 Predicted change in Energy=-6.878042D-05
 GradGradGradGradGradGradGradGradGradGradGradGradGradGradGradGradGradGrad

                          Input orientation:                          
 ---------------------------------------------------------------------
 Center     Atomic      Atomic             Coordinates (Angstroms)
 Number     Number       Type             X           Y           Z
 ---------------------------------------------------------------------
      1          6           0       -9.644994    4.092091    0.000000
      2          6           0       -8.299529    4.065316    0.000000
      3          1           0      -10.204975    4.948740    0.399095
      4          1           0      -10.238614    3.258400   -0.399095
      5          1           0       -7.705909    4.899007    0.399095
      6          1           0       -7.739549    3.208666   -0.399095
 ---------------------------------------------------------------------
                    Distance matrix (angstroms):
                    1          2          3          4          5
     1  C    0.000000
     2  C    1.345732   0.000000
     3  H    1.098500   2.137859   0.000000
     4  H    1.098500   2.137859   1.869623   0.000000
     5  H    2.137859   1.098500   2.499561   3.121425   0.000000
     6  H    2.137859   1.098500   3.121424   2.499560   1.869623
                    6
     6  H    0.000000
 Stoichiometry    C2H4
 Framework group  C1[X(C2H4)]
 Deg. of freedom    12
 Full point group                 C1      NOp   1
 Largest Abelian subgroup         C1      NOp   1
 Largest concise Abelian subgroup C1      NOp   1
                         Standard orientation:                         
 ---------------------------------------------------------------------
 Center     Atomic      Atomic             Coordinates (Angstroms)
 Number     Number       Type             X           Y           Z
 ---------------------------------------------------------------------
      1          6           0        0.672866    0.000000    0.000000
      2          6           0       -0.672866    0.000000    0.000000
      3          1           0        1.249780   -0.934811    0.000000
      4          1           0        1.249780    0.934811    0.000000
      5          1           0       -1.249780   -0.934811    0.000000
      6          1           0       -1.249780    0.934812    0.000000
 ---------------------------------------------------------------------
 Rotational constants (GHZ):    143.4577788     29.4464244     24.4315555
 Standard basis: STO-3G (5D, 7F)
 There are    14 symmetry adapted cartesian basis functions of A   symmetry.
 There are    14 symmetry adapted basis functions of A   symmetry.
    14 basis functions,    42 primitive gaussians,    14 cartesian basis functions
     8 alpha electrons        8 beta electrons
       nuclear repulsion energy        32.9867937064 Hartrees.
 NAtoms=    6 NActive=    6 NUniq=    6 SFac= 1.00D+00 NAtFMM=   60 NAOKFM=F Big=F
 Integral buffers will be    131072 words long.
 Raffenetti 1 integral format.
 Two-electron integral symmetry is turned on.
 One-electron integrals computed using PRISM.
 NBasis=    14 RedAO= T EigKep=  1.97D-01  NBF=    14
 NBsUse=    14 1.00D-06 EigRej= -1.00D+00 NBFU=    14
 Initial guess from the checkpoint file:  "/scr/Gau-5478.chk"
 B after Tr=     0.000000    0.000000    0.000000
         Rot=    1.000000    0.000000    0.000000    0.000000 Ang=   0.00 deg.
 Keep R1 ints in memory in canonical form, NReq=831627.
 Requested convergence on RMS density matrix=1.00D-08 within 128 cycles.
 Requested convergence on MAX density matrix=1.00D-06.
 Requested convergence on             energy=1.00D-06.
 No special actions if energy rises.
 SCF Done:  E(RHF) =  -77.0706157262     A.U. after    6 cycles
            NFock=  6  Conv=0.24D-08     -V/T= 2.0074
 ExpMin= 1.69D-01 ExpMax= 7.16D+01 ExpMxC= 7.16D+01 IAcc=3 IRadAn=         5 AccDes= 0.00D+00
 HarFok:  IExCor=  205 AccDes= 0.00D+00 IRadAn=         5 IDoV=-2 UseB2=F ITyADJ=14
 ICtDFT= 12500011 ScaDFX=  1.000000  1.000000  1.000000  1.000000
 Range of M.O.s used for correlation:     3    14
 NBasis=    14 NAE=     8 NBE=     8 NFC=     2 NFV=     0
 NROrb=     12 NOA=     6 NOB=     6 NVA=     6 NVB=     6
 Fully direct method using O(ONN) memory.
 JobTyp=1 Pass  1:  I=   3 to   8 NPSUse=  3 ParTrn=F ParDer=T DoDerP=T.
 Spin components of T(2) and E(2):
     alpha-alpha T2 =       0.3476265800D-02 E2=     -0.8097769479D-02
     alpha-beta  T2 =       0.5217734275D-01 E2=     -0.1086182932D+00
     beta-beta   T2 =       0.3476265800D-02 E2=     -0.8097769479D-02
 ANorm=    0.1029140357D+01
 E2 =    -0.1248138321D+00 EUMP2 =    -0.77195429558312D+02
          IDoAtm=111111
          Differentiating once with respect to electric field.
                with respect to dipole field.
          Differentiating once with respect to nuclear coordinates.
 Keep R1 ints in memory in canonical form, NReq=814237.
          There are     1 degrees of freedom in the 1st order CPHF.  IDoFFX=0 NUNeed=     1.
 LinEq1:  Iter=  0 NonCon=     1 RMS=3.21D-03 Max=1.48D-02 NDo=     1
 AX will form     1 AO Fock derivatives at one time.
 LinEq1:  Iter=  1 NonCon=     1 RMS=7.87D-05 Max=3.64D-04 NDo=     1
 LinEq1:  Iter=  2 NonCon=     1 RMS=8.20D-06 Max=3.17D-05 NDo=     1
 LinEq1:  Iter=  3 NonCon=     1 RMS=4.66D-07 Max=1.87D-06 NDo=     1
 LinEq1:  Iter=  4 NonCon=     1 RMS=4.02D-08 Max=1.52D-07 NDo=     1
 LinEq1:  Iter=  5 NonCon=     1 RMS=3.10D-09 Max=1.36D-08 NDo=     1
 LinEq1:  Iter=  6 NonCon=     1 RMS=1.40D-10 Max=7.28D-10 NDo=     1
 LinEq1:  Iter=  7 NonCon=     0 RMS=4.09D-11 Max=1.18D-10 NDo=     1
 Linear equations converged to 1.000D-10 1.000D-09 after     7 iterations.
 End of Minotr F.D. properties file   721 does not exist.
 End of Minotr F.D. properties file   722 does not exist.
 End of Minotr F.D. properties file   788 does not exist.
 Calling FoFJK, ICntrl=  10002127 FMM=F ISym2X=0 I1Cent= 0 IOpClX= 0 NMat=1 NMatS=1 NMatT=0.
 ***** Axes restored to original set *****
 -------------------------------------------------------------------
 Center     Atomic                   Forces (Hartrees/Bohr)
 Number     Number              X              Y              Z
 -------------------------------------------------------------------
      1        6           0.001044108   -0.000020751    0.000000097
      2        6          -0.001044258    0.000020689    0.000000024
      3        1          -0.000112952   -0.000162608   -0.000077865
      4        1          -0.000106413    0.000166976    0.000077785
      5        1           0.000106466   -0.000166948   -0.000077829
      6        1           0.000113050    0.000162643    0.000077788
 -------------------------------------------------------------------
 Cartesian Forces:  Max     0.001044258 RMS     0.000362289

 GradGradGradGradGradGradGradGradGradGradGradGradGradGradGradGradGradGrad
 Berny optimization.
 Using GEDIIS/GDIIS optimizer.
 FormGI is forming the generalized inverse of G from B-inverse, IUseBI=4.
 Internal  Forces:  Max     0.000824906 RMS     0.000248189
 Search for a local minimum.
 Step number   3 out of a maximum of   25
 All quantities printed in internal units (Hartrees-Bohrs-Radians)
 Mixed Optimization -- En-DIIS/RFO-DIIS
 Update second derivatives using D2CorX and points    1    2    3
 DE= -7.63D-05 DEPred=-6.88D-05 R= 1.11D+00
 TightC=F SS=  1.41D+00  RLast= 1.60D-02 DXNew= 5.4316D-01 4.8087D-02
 Trust test= 1.11D+00 RLast= 1.60D-02 DXMaxT set to 3.23D-01
 The second derivative matrix:
                          R1        R2        R3        R4        R5
           R1           0.63357
           R2           0.02301   0.36241
           R3           0.02299   0.00860   0.36240
           R4           0.02300   0.00860   0.00859   0.36240
           R5           0.02300   0.00860   0.00860   0.00860   0.36241
           A1           0.00838   0.00099   0.00099   0.00099   0.00099
           A2           0.00838   0.00099   0.00099   0.00099   0.00099
           A3          -0.01675  -0.00199  -0.00198  -0.00198  -0.00199
           A4           0.00838   0.00099   0.00099   0.00099   0.00099
           A5           0.00838   0.00099   0.00099   0.00099   0.00099
           A6          -0.01676  -0.00199  -0.00199  -0.00198  -0.00199
           D1           0.00000   0.00000   0.00000   0.00000   0.00000
           D2           0.00000   0.00000   0.00000   0.00000   0.00000
           D3           0.00000   0.00000   0.00000   0.00000   0.00000
           D4           0.00000   0.00000   0.00000   0.00000   0.00000
                          A1        A2        A3        A4        A5
           A1           0.15848
           A2          -0.00152   0.15848
           A3           0.00304   0.00304   0.15392
           A4          -0.00152  -0.00152   0.00304   0.15848
           A5          -0.00152  -0.00152   0.00304  -0.00152   0.15848
           A6           0.00304   0.00304  -0.00608   0.00304   0.00304
           D1           0.00000   0.00000   0.00000   0.00000   0.00000
           D2           0.00000   0.00000   0.00000   0.00000   0.00000
           D3           0.00000   0.00000   0.00000   0.00000   0.00000
           D4           0.00000   0.00000   0.00000   0.00000   0.00000
                          A6        D1        D2        D3        D4
           A6           0.15392
           D1           0.00000   0.02998
           D2           0.00000   0.00000   0.02998
           D3           0.00000   0.00000   0.00000   0.02998
           D4           0.00000   0.00000   0.00000   0.00000   0.02998
 ITU=  1  1  0
 Use linear search instead of GDIIS.
     Eigenvalues ---    0.02998   0.02998   0.02998   0.13997   0.16000
     Eigenvalues ---    0.16000   0.16000   0.35380   0.35381   0.35381
     Eigenvalues ---    0.37987   0.64367
 RFO step:  Lambda=-1.28328086D-06 EMin= 2.99827130D-02
 Quartic linear search produced a step of  0.10992.
 Iteration  1 RMS(Cart)=  0.00085568 RMS(Int)=  0.00000054
 Iteration  2 RMS(Cart)=  0.00000055 RMS(Int)=  0.00000000
 Variable       Old X    -DE/DX   Delta X   Delta X   Delta X     New X
                                 (Linear)    (Quad)   (Total)
    R1        2.54307  -0.00082  -0.00121  -0.00021  -0.00142   2.54164
    R2        2.07586  -0.00010  -0.00054   0.00035  -0.00019   2.07568
    R3        2.07586  -0.00010  -0.00054   0.00035  -0.00019   2.07568
    R4        2.07586  -0.00010  -0.00054   0.00035  -0.00019   2.07568
    R5        2.07586  -0.00010  -0.00054   0.00035  -0.00019   2.07568
    A1        2.12373   0.00013   0.00020   0.00080   0.00100   2.12473
    A2        2.12373   0.00013   0.00020   0.00080   0.00100   2.12473
    A3        2.03573  -0.00026  -0.00040  -0.00160  -0.00200   2.03373
    A4        2.12373   0.00013   0.00020   0.00080   0.00100   2.12473
    A5        2.12373   0.00013   0.00020   0.00080   0.00100   2.12473
    A6        2.03573  -0.00026  -0.00040  -0.00160  -0.00200   2.03373
    D1        0.00000   0.00000   0.00000   0.00000   0.00000   0.00000
    D2        3.14159   0.00000   0.00000   0.00000   0.00000  -3.14159
    D3       -3.14159   0.00000   0.00000   0.00000   0.00000   3.14159
    D4        0.00000   0.00000   0.00000   0.00000   0.00000   0.00000
         Item               Value     Threshold  Converged?
 Maximum Force            0.000825     0.000450     NO 
 RMS     Force            0.000248     0.000300     YES
 Maximum Displacement     0.001152     0.001800     YES
 RMS     Displacement     0.000856     0.001200     YES
 Predicted change in Energy=-1.425472D-06
 GradGradGradGradGradGradGradGradGradGradGradGradGradGradGradGradGradGrad

                          Input orientation:                          
 ---------------------------------------------------------------------
 Center     Atomic      Atomic             Coordinates (Angstroms)
 Number     Number       Type             X           Y           Z
 ---------------------------------------------------------------------
      1          6           0       -9.644619    4.092084    0.000000
      2          6           0       -8.299904    4.065323    0.000000
      3          1           0      -10.205495    4.948151    0.398812
      4          1           0      -10.239110    3.259010   -0.398812
      5          1           0       -7.705413    4.898397    0.398812
      6          1           0       -7.739028    3.209256   -0.398812
 ---------------------------------------------------------------------
                    Distance matrix (angstroms):
                    1          2          3          4          5
     1  C    0.000000
     2  C    1.344981   0.000000
     3  H    1.098401   2.137688   0.000000
     4  H    1.098401   2.137688   1.868296   0.000000
     5  H    2.137688   1.098401   2.500577   3.121445   0.000000
     6  H    2.137688   1.098401   3.121445   2.500577   1.868296
                    6
     6  H    0.000000
 Stoichiometry    C2H4
 Framework group  C1[X(C2H4)]
 Deg. of freedom    12
 Full point group                 C1      NOp   1
 Largest Abelian subgroup         C1      NOp   1
 Largest concise Abelian subgroup C1      NOp   1
                         Standard orientation:                         
 ---------------------------------------------------------------------
 Center     Atomic      Atomic             Coordinates (Angstroms)
 Number     Number       Type             X           Y           Z
 ---------------------------------------------------------------------
      1          6           0        0.672490    0.000000    0.000000
      2          6           0       -0.672490    0.000000    0.000000
      3          1           0        1.250289   -0.934148   -0.000001
      4          1           0        1.250289    0.934148    0.000000
      5          1           0       -1.250289   -0.934148    0.000000
      6          1           0       -1.250289    0.934148    0.000000
 ---------------------------------------------------------------------
 Rotational constants (GHZ):    143.6615603     29.4584531     24.4457429
 Standard basis: STO-3G (5D, 7F)
 There are    14 symmetry adapted cartesian basis functions of A   symmetry.
 There are    14 symmetry adapted basis functions of A   symmetry.
    14 basis functions,    42 primitive gaussians,    14 cartesian basis functions
     8 alpha electrons        8 beta electrons
       nuclear repulsion energy        32.9964519543 Hartrees.
 NAtoms=    6 NActive=    6 NUniq=    6 SFac= 1.00D+00 NAtFMM=   60 NAOKFM=F Big=F
 Integral buffers will be    131072 words long.
 Raffenetti 1 integral format.
 Two-electron integral symmetry is turned on.
 One-electron integrals computed using PRISM.
 NBasis=    14 RedAO= T EigKep=  1.97D-01  NBF=    14
 NBsUse=    14 1.00D-06 EigRej= -1.00D+00 NBFU=    14
 Initial guess from the checkpoint file:  "/scr/Gau-5478.chk"
 B after Tr=     0.000000    0.000000    0.000000
         Rot=    1.000000    0.000000    0.000000    0.000000 Ang=   0.00 deg.
 Keep R1 ints in memory in canonical form, NReq=831627.
 Requested convergence on RMS density matrix=1.00D-08 within 128 cycles.
 Requested convergence on MAX density matrix=1.00D-06.
 Requested convergence on             energy=1.00D-06.
 No special actions if energy rises.
 SCF Done:  E(RHF) =  -77.0707195358     A.U. after    5 cycles
            NFock=  5  Conv=0.38D-08     -V/T= 2.0074
 ExpMin= 1.69D-01 ExpMax= 7.16D+01 ExpMxC= 7.16D+01 IAcc=3 IRadAn=         5 AccDes= 0.00D+00
 HarFok:  IExCor=  205 AccDes= 0.00D+00 IRadAn=         5 IDoV=-2 UseB2=F ITyADJ=14
 ICtDFT= 12500011 ScaDFX=  1.000000  1.000000  1.000000  1.000000
 Range of M.O.s used for correlation:     3    14
 NBasis=    14 NAE=     8 NBE=     8 NFC=     2 NFV=     0
 NROrb=     12 NOA=     6 NOB=     6 NVA=     6 NVB=     6
 Fully direct method using O(ONN) memory.
 JobTyp=1 Pass  1:  I=   3 to   8 NPSUse=  3 ParTrn=F ParDer=T DoDerP=T.
 Spin components of T(2) and E(2):
     alpha-alpha T2 =       0.3469315973D-02 E2=     -0.8088215112D-02
     alpha-beta  T2 =       0.5210243186D-01 E2=     -0.1085350394D+00
     beta-beta   T2 =       0.3469315973D-02 E2=     -0.8088215112D-02
 ANorm=    0.1029097208D+01
 E2 =    -0.1247114696D+00 EUMP2 =    -0.77195431005428D+02
          IDoAtm=111111
          Differentiating once with respect to electric field.
                with respect to dipole field.
          Differentiating once with respect to nuclear coordinates.
 Keep R1 ints in memory in canonical form, NReq=814237.
          There are     1 degrees of freedom in the 1st order CPHF.  IDoFFX=0 NUNeed=     1.
 LinEq1:  Iter=  0 NonCon=     1 RMS=3.22D-03 Max=1.48D-02 NDo=     1
 AX will form     1 AO Fock derivatives at one time.
 LinEq1:  Iter=  1 NonCon=     1 RMS=7.91D-05 Max=3.65D-04 NDo=     1
 LinEq1:  Iter=  2 NonCon=     1 RMS=8.25D-06 Max=3.21D-05 NDo=     1
 LinEq1:  Iter=  3 NonCon=     1 RMS=4.63D-07 Max=1.88D-06 NDo=     1
 LinEq1:  Iter=  4 NonCon=     1 RMS=3.93D-08 Max=1.48D-07 NDo=     1
 LinEq1:  Iter=  5 NonCon=     1 RMS=3.04D-09 Max=1.35D-08 NDo=     1
 LinEq1:  Iter=  6 NonCon=     0 RMS=6.35D-11 Max=2.35D-10 NDo=     1
 Linear equations converged to 1.000D-10 1.000D-09 after     6 iterations.
 End of Minotr F.D. properties file   721 does not exist.
 End of Minotr F.D. properties file   722 does not exist.
 End of Minotr F.D. properties file   788 does not exist.
 Calling FoFJK, ICntrl=  10002127 FMM=F ISym2X=0 I1Cent= 0 IOpClX= 0 NMat=1 NMatS=1 NMatT=0.
 ***** Axes restored to original set *****
 -------------------------------------------------------------------
 Center     Atomic                   Forces (Hartrees/Bohr)
 Number     Number              X              Y              Z
 -------------------------------------------------------------------
      1        6           0.000005101   -0.000000069   -0.000000075
      2        6          -0.000005096    0.000000140   -0.000000063
      3        1          -0.000010543   -0.000004644   -0.000002241
      4        1          -0.000010362    0.000005021    0.000002311
      5        1           0.000010356   -0.000005058   -0.000002255
      6        1           0.000010545    0.000004611    0.000002323
 -------------------------------------------------------------------
 Cartesian Forces:  Max     0.000010545 RMS     0.000005790

 GradGradGradGradGradGradGradGradGradGradGradGradGradGradGradGradGradGrad
 Berny optimization.
 Using GEDIIS/GDIIS optimizer.
 FormGI is forming the generalized inverse of G from B-inverse, IUseBI=4.
 Internal  Forces:  Max     0.000016196 RMS     0.000008328
 Search for a local minimum.
 Step number   4 out of a maximum of   25
 All quantities printed in internal units (Hartrees-Bohrs-Radians)
 Mixed Optimization -- En-DIIS/RFO-DIIS
 Swapping is turned off.
 Update second derivatives using D2CorX and points    1    2    3    4
 DE= -1.45D-06 DEPred=-1.43D-06 R= 1.02D+00
 TightC=F SS=  1.41D+00  RLast= 3.77D-03 DXNew= 5.4316D-01 1.1310D-02
 Trust test= 1.02D+00 RLast= 3.77D-03 DXMaxT set to 3.23D-01
 The second derivative matrix:
                          R1        R2        R3        R4        R5
           R1           0.64722
           R2           0.02294   0.36125
           R3           0.02293   0.00744   0.36124
           R4           0.02293   0.00744   0.00744   0.36124
           R5           0.02293   0.00744   0.00744   0.00744   0.36125
           A1           0.00796   0.00052   0.00052   0.00052   0.00052
           A2           0.00796   0.00052   0.00052   0.00052   0.00052
           A3          -0.01592  -0.00103  -0.00103  -0.00103  -0.00103
           A4           0.00796   0.00052   0.00052   0.00052   0.00052
           A5           0.00796   0.00052   0.00052   0.00052   0.00052
           A6          -0.01592  -0.00103  -0.00103  -0.00103  -0.00103
           D1           0.00000   0.00000   0.00000   0.00000   0.00000
           D2          -0.00002   0.00000   0.00000   0.00000   0.00000
           D3           0.00002   0.00000   0.00000   0.00000   0.00000
           D4           0.00000   0.00000   0.00000   0.00000   0.00000
                          A1        A2        A3        A4        A5
           A1           0.15785
           A2          -0.00215   0.15785
           A3           0.00431   0.00431   0.15139
           A4          -0.00215  -0.00215   0.00431   0.15785
           A5          -0.00215  -0.00215   0.00431  -0.00215   0.15785
           A6           0.00431   0.00431  -0.00861   0.00431   0.00431
           D1           0.00000   0.00000   0.00000   0.00000   0.00000
           D2           0.00000   0.00000  -0.00001   0.00000   0.00000
           D3           0.00000   0.00000   0.00000   0.00000   0.00000
           D4           0.00000   0.00000   0.00000   0.00000   0.00000
                          A6        D1        D2        D3        D4
           A6           0.15138
           D1           0.00000   0.02998
           D2          -0.00001   0.00000   0.02998
           D3           0.00000   0.00000   0.00000   0.02998
           D4           0.00000   0.00000   0.00000   0.00000   0.02998
 ITU=  1  1  1  0
     Eigenvalues ---    0.02998   0.02998   0.02998   0.13267   0.16000
     Eigenvalues ---    0.16000   0.16000   0.35380   0.35381   0.35381
     Eigenvalues ---    0.37582   0.65645
 En-DIIS/RFO-DIIS IScMMF=        0 using points:     4    3
 RFO step:  Lambda= 0.00000000D+00.
 DidBck=F Rises=F RFO-DIIS coefs:    1.02704   -0.02704
 Iteration  1 RMS(Cart)=  0.00006722 RMS(Int)=  0.00000000
 Iteration  2 RMS(Cart)=  0.00000000 RMS(Int)=  0.00000000
 Variable       Old X    -DE/DX   Delta X   Delta X   Delta X     New X
                                 (Linear)    (Quad)   (Total)
    R1        2.54164   0.00002  -0.00004   0.00005   0.00002   2.54166
    R2        2.07568   0.00000  -0.00001   0.00001   0.00000   2.07568
    R3        2.07568   0.00000  -0.00001   0.00001   0.00000   2.07568
    R4        2.07568   0.00000  -0.00001   0.00001   0.00000   2.07568
    R5        2.07568   0.00000  -0.00001   0.00001   0.00000   2.07568
    A1        2.12473   0.00001   0.00003   0.00003   0.00006   2.12479
    A2        2.12473   0.00001   0.00003   0.00003   0.00006   2.12479
    A3        2.03373  -0.00002  -0.00005  -0.00006  -0.00012   2.03361
    A4        2.12473   0.00001   0.00003   0.00003   0.00006   2.12479
    A5        2.12473   0.00001   0.00003   0.00003   0.00006   2.12479
    A6        2.03373  -0.00002  -0.00005  -0.00006  -0.00012   2.03361
    D1        0.00000   0.00000   0.00000   0.00000   0.00000   0.00000
    D2       -3.14159   0.00000   0.00000   0.00000   0.00000   3.14159
    D3        3.14159   0.00000   0.00000   0.00000   0.00000  -3.14159
    D4        0.00000   0.00000   0.00000   0.00000   0.00000   0.00000
         Item               Value     Threshold  Converged?
 Maximum Force            0.000016     0.000450     YES
 RMS     Force            0.000008     0.000300     YES
 Maximum Displacement     0.000114     0.001800     YES
 RMS     Displacement     0.000067     0.001200     YES
 Predicted change in Energy=-3.011283D-09
 Optimization completed.
    -- Stationary point found.
                           ----------------------------
                           !   Optimized Parameters   !
                           ! (Angstroms and Degrees)  !
 --------------------------                            --------------------------
 ! Name  Definition              Value          Derivative Info.                !
 --------------------------------------------------------------------------------
 ! R1    R(1,2)                  1.345          -DE/DX =    0.0                 !
 ! R2    R(1,3)                  1.0984         -DE/DX =    0.0                 !
 ! R3    R(1,4)                  1.0984         -DE/DX =    0.0                 !
 ! R4    R(2,5)                  1.0984         -DE/DX =    0.0                 !
 ! R5    R(2,6)                  1.0984         -DE/DX =    0.0                 !
 ! A1    A(2,1,3)              121.738          -DE/DX =    0.0                 !
 ! A2    A(2,1,4)              121.738          -DE/DX =    0.0                 !
 ! A3    A(3,1,4)              116.524          -DE/DX =    0.0                 !
 ! A4    A(1,2,5)              121.738          -DE/DX =    0.0                 !
 ! A5    A(1,2,6)              121.738          -DE/DX =    0.0                 !
 ! A6    A(5,2,6)              116.524          -DE/DX =    0.0                 !
 ! D1    D(3,1,2,5)              0.0            -DE/DX =    0.0                 !
 ! D2    D(3,1,2,6)            180.0001         -DE/DX =    0.0                 !
 ! D3    D(4,1,2,5)           -180.0001         -DE/DX =    0.0                 !
 ! D4    D(4,1,2,6)              0.0            -DE/DX =    0.0                 !
 --------------------------------------------------------------------------------
 GradGradGradGradGradGradGradGradGradGradGradGradGradGradGradGradGradGrad

                          Input orientation:                          
 ---------------------------------------------------------------------
 Center     Atomic      Atomic             Coordinates (Angstroms)
 Number     Number       Type             X           Y           Z
 ---------------------------------------------------------------------
      1          6           0       -9.644619    4.092084    0.000000
      2          6           0       -8.299904    4.065323    0.000000
      3          1           0      -10.205495    4.948151    0.398812
      4          1           0      -10.239110    3.259010   -0.398812
      5          1           0       -7.705413    4.898397    0.398812
      6          1           0       -7.739028    3.209256   -0.398812
 ---------------------------------------------------------------------
                    Distance matrix (angstroms):
                    1          2          3          4          5
     1  C    0.000000
     2  C    1.344981   0.000000
     3  H    1.098401   2.137688   0.000000
     4  H    1.098401   2.137688   1.868296   0.000000
     5  H    2.137688   1.098401   2.500577   3.121445   0.000000
     6  H    2.137688   1.098401   3.121445   2.500577   1.868296
                    6
     6  H    0.000000
 Stoichiometry    C2H4
 Framework group  C1[X(C2H4)]
 Deg. of freedom    12
 Full point group                 C1      NOp   1
 Largest Abelian subgroup         C1      NOp   1
 Largest concise Abelian subgroup C1      NOp   1
                         Standard orientation:                         
 ---------------------------------------------------------------------
 Center     Atomic      Atomic             Coordinates (Angstroms)
 Number     Number       Type             X           Y           Z
 ---------------------------------------------------------------------
      1          6           0        0.672490    0.000000    0.000000
      2          6           0       -0.672490    0.000000    0.000000
      3          1           0        1.250289   -0.934148   -0.000001
      4          1           0        1.250289    0.934148    0.000000
      5          1           0       -1.250289   -0.934148    0.000000
      6          1           0       -1.250289    0.934148    0.000000
 ---------------------------------------------------------------------
 Rotational constants (GHZ):    143.6615603     29.4584531     24.4457429

 **********************************************************************

            Population analysis using the SCF density.

 **********************************************************************

 Orbital symmetries:
       Occupied  (A) (A) (A) (A) (A) (A) (A) (A)
       Virtual   (A) (A) (A) (A) (A) (A)
 The electronic state is 1-A.
 Alpha  occ. eigenvalues --  -11.02004 -11.01931  -0.97084  -0.73967  -0.59384
 Alpha  occ. eigenvalues --   -0.52659  -0.45729  -0.32033
 Alpha virt. eigenvalues --    0.31637   0.61630   0.67547   0.67845   0.92041
 Alpha virt. eigenvalues --    0.97273
          Condensed to atoms (all electrons):
               1          2          3          4          5          6
     1  C    4.794559   0.596860   0.388825   0.388825  -0.024532  -0.024532
     2  C    0.596860   4.794559  -0.024532  -0.024532   0.388825   0.388825
     3  H    0.388825  -0.024532   0.601658  -0.023540  -0.004216   0.001802
     4  H    0.388825  -0.024532  -0.023540   0.601658   0.001802  -0.004216
     5  H   -0.024532   0.388825  -0.004216   0.001802   0.601658  -0.023540
     6  H   -0.024532   0.388825   0.001802  -0.004216  -0.023540   0.601658
 Mulliken charges:
               1
     1  C   -0.120004
     2  C   -0.120004
     3  H    0.060002
     4  H    0.060002
     5  H    0.060002
     6  H    0.060002
 Sum of Mulliken charges =   0.00000
 Mulliken charges with hydrogens summed into heavy atoms:
               1
     1  C    0.000000
     2  C    0.000000
 Electronic spatial extent (au):  <R**2>=             81.8509
 Charge=              0.0000 electrons
 Dipole moment (field-independent basis, Debye):
    X=              0.0000    Y=              0.0000    Z=              0.0000  Tot=              0.0000
 Quadrupole moment (field-independent basis, Debye-Ang):
   XX=            -11.9176   YY=            -11.8068   ZZ=            -13.5015
   XY=              0.0000   XZ=              0.0000   YZ=              0.0000
 Traceless Quadrupole moment (field-independent basis, Debye-Ang):
   XX=              0.4910   YY=              0.6018   ZZ=             -1.0928
   XY=              0.0000   XZ=              0.0000   YZ=              0.0000
 Octapole moment (field-independent basis, Debye-Ang**2):
  XXX=              0.0000  YYY=              0.0000  ZZZ=              0.0000  XYY=              0.0000
  XXY=              0.0000  XXZ=              0.0000  XZZ=              0.0000  YZZ=              0.0000
  YYZ=              0.0000  XYZ=              0.0000
 Hexadecapole moment (field-independent basis, Debye-Ang**3):
 XXXX=            -64.8062 YYYY=            -24.2977 ZZZZ=            -10.9205 XXXY=              0.0000
 XXXZ=              0.0000 YYYX=              0.0000 YYYZ=              0.0000 ZZZX=              0.0000
 ZZZY=              0.0000 XXYY=            -12.5381 XXZZ=            -13.1464 YYZZ=             -6.4009
 XXYZ=              0.0000 YYXZ=              0.0000 ZZXY=              0.0000
 N-N= 3.299645195428D+01 E-N=-2.453466163708D+02  KE= 7.650809747829D+01
 1\1\GINC-N0288\FOpt\RMP2-FC\STO-3G\C2H4\GDAVIDS3\21-Feb-2017\0\\#n MP2
 /STO-3G Opt\\Ethene MP2 STO-3G\\0,1\C,-9.6446188387,4.0920835322,0.000
 0004594\C,-8.2999044956,4.0653228087,0.0000002407\H,-10.205495318,4.94
 81505703,0.3988118103\H,-10.239110398,3.2590095698,-0.3988118174\H,-7.
 7054129037,4.8983972213,0.3988115695\H,-7.7390280461,3.2092562902,-0.3
 988122661\\Version=ES64L-G09RevE.01\State=1-A\HF=-77.0707195\MP2=-77.1
 95431\RMSD=3.794e-09\RMSF=5.790e-06\Dipole=0.,0.0000001,-0.0000003\PG=
 C01 [X(C2H4)]\\@


 YOU ARE IN A MAZE OF TWISTY LITTLE PASSAGES.
 Job cpu time:       0 days  0 hours  0 minutes 30.3 seconds.
 File lengths (MBytes):  RWF=      5 Int=      0 D2E=      0 Chk=      1 Scr=      1
 Normal termination of Gaussian 09 at Tue Feb 21 18:36:42 2017.
