 Entering Gaussian System, Link 0=g09
 Input=Ethene_MP2_LANL2DZ.com
 Output=Ethene_MP2_LANL2DZ.log
 Initial command:
 /sw/contrib/gaussian/g09/E01/g09/l1.exe "/scr/Gau-4831.inp" -scrdir="/scr/"
 Entering Link 1 = /sw/contrib/gaussian/g09/E01/g09/l1.exe PID=      4832.
  
 Copyright (c) 1988,1990,1992,1993,1995,1998,2003,2009,2015,
            Gaussian, Inc.  All Rights Reserved.
  
 This is part of the Gaussian(R) 09 program.  It is based on
 the Gaussian(R) 03 system (copyright 2003, Gaussian, Inc.),
 the Gaussian(R) 98 system (copyright 1998, Gaussian, Inc.),
 the Gaussian(R) 94 system (copyright 1995, Gaussian, Inc.),
 the Gaussian 92(TM) system (copyright 1992, Gaussian, Inc.),
 the Gaussian 90(TM) system (copyright 1990, Gaussian, Inc.),
 the Gaussian 88(TM) system (copyright 1988, Gaussian, Inc.),
 the Gaussian 86(TM) system (copyright 1986, Carnegie Mellon
 University), and the Gaussian 82(TM) system (copyright 1983,
 Carnegie Mellon University). Gaussian is a federally registered
 trademark of Gaussian, Inc.
  
 This software contains proprietary and confidential information,
 including trade secrets, belonging to Gaussian, Inc.
  
 This software is provided under written license and may be
 used, copied, transmitted, or stored only in accord with that
 written license.
  
 The following legend is applicable only to US Government
 contracts under FAR:
  
                    RESTRICTED RIGHTS LEGEND
  
 Use, reproduction and disclosure by the US Government is
 subject to restrictions as set forth in subparagraphs (a)
 and (c) of the Commercial Computer Software - Restricted
 Rights clause in FAR 52.227-19.
  
 Gaussian, Inc.
 340 Quinnipiac St., Bldg. 40, Wallingford CT 06492
  
  
 ---------------------------------------------------------------
 Warning -- This program may not be used in any manner that
 competes with the business of Gaussian, Inc. or will provide
 assistance to any competitor of Gaussian, Inc.  The licensee
 of this program is prohibited from giving any competitor of
 Gaussian, Inc. access to this program.  By using this program,
 the user acknowledges that Gaussian, Inc. is engaged in the
 business of creating and licensing software in the field of
 computational chemistry and represents and warrants to the
 licensee that it is not a competitor of Gaussian, Inc. and that
 it will not use this program in any manner prohibited above.
 ---------------------------------------------------------------
  

 Cite this work as:
 Gaussian 09, Revision E.01,
 M. J. Frisch, G. W. Trucks, H. B. Schlegel, G. E. Scuseria, 
 M. A. Robb, J. R. Cheeseman, G. Scalmani, V. Barone, B. Mennucci, 
 G. A. Petersson, H. Nakatsuji, M. Caricato, X. Li, H. P. Hratchian, 
 A. F. Izmaylov, J. Bloino, G. Zheng, J. L. Sonnenberg, M. Hada, 
 M. Ehara, K. Toyota, R. Fukuda, J. Hasegawa, M. Ishida, T. Nakajima, 
 Y. Honda, O. Kitao, H. Nakai, T. Vreven, J. A. Montgomery, Jr., 
 J. E. Peralta, F. Ogliaro, M. Bearpark, J. J. Heyd, E. Brothers, 
 K. N. Kudin, V. N. Staroverov, T. Keith, R. Kobayashi, J. Normand, 
 K. Raghavachari, A. Rendell, J. C. Burant, S. S. Iyengar, J. Tomasi, 
 M. Cossi, N. Rega, J. M. Millam, M. Klene, J. E. Knox, J. B. Cross, 
 V. Bakken, C. Adamo, J. Jaramillo, R. Gomperts, R. E. Stratmann, 
 O. Yazyev, A. J. Austin, R. Cammi, C. Pomelli, J. W. Ochterski, 
 R. L. Martin, K. Morokuma, V. G. Zakrzewski, G. A. Voth, 
 P. Salvador, J. J. Dannenberg, S. Dapprich, A. D. Daniels, 
 O. Farkas, J. B. Foresman, J. V. Ortiz, J. Cioslowski, 
 and D. J. Fox, Gaussian, Inc., Wallingford CT, 2013.
 
 ******************************************
 Gaussian 09:  ES64L-G09RevE.01 30-Nov-2015
                21-Feb-2017 
 ******************************************
 %NProcShared=8
 Will use up to    8 processors via shared memory.
 ------------------
 #n MP2/LANL2DZ Opt
 ------------------
 1/18=20,19=15,38=1/1,3;
 2/9=110,12=2,17=6,18=5,40=1/2;
 3/5=6,6=3,11=9,16=1,25=1,30=1,71=1/1,2,3;
 4//1;
 5/5=2,38=5/2;
 8/6=4,10=1/1;
 9/15=2,16=-3/6;
 10/5=1/2;
 6/7=2,8=2,9=2,10=2/1;
 7/12=2/1,2,3,16;
 1/18=20,19=15/3(2);
 2/9=110/2;
 99//99;
 2/9=110/2;
 3/5=6,6=3,11=9,16=1,25=1,30=1,71=1/1,2,3;
 4/5=5,16=3,69=1/1;
 5/5=2,38=5/2;
 8/6=4,10=1/1;
 9/15=2,16=-3/6;
 10/5=1/2;
 7/12=2/1,2,3,16;
 1/18=20,19=15/3(-8);
 2/9=110/2;
 6/7=2,8=2,9=2,10=2/1;
 99//99;
 ------------------
 Ethene MP2 LANL2DZ
 ------------------
 Symbolic Z-matrix:
 Charge =  0 Multiplicity = 1
 C                    -7.65068   3.04127   0. 
 C                    -6.33127   2.92512   0. 
 H                    -8.2108    3.09095  -0.93056 
 H                    -8.21086   3.09021   0.93056 
 H                    -5.77109   2.87619  -0.93056 
 H                    -5.77115   2.87544   0.93056 
 

 GradGradGradGradGradGradGradGradGradGradGradGradGradGradGradGradGradGrad
 Berny optimization.
 Initialization pass.
                           ----------------------------
                           !    Initial Parameters    !
                           ! (Angstroms and Degrees)  !
 --------------------------                            --------------------------
 ! Name  Definition              Value          Derivative Info.                !
 --------------------------------------------------------------------------------
 ! R1    R(1,2)                  1.3245         estimate D2E/DX2                !
 ! R2    R(1,3)                  1.0873         estimate D2E/DX2                !
 ! R3    R(1,4)                  1.0873         estimate D2E/DX2                !
 ! R4    R(2,5)                  1.0873         estimate D2E/DX2                !
 ! R5    R(2,6)                  1.0873         estimate D2E/DX2                !
 ! A1    A(2,1,3)              121.1437         estimate D2E/DX2                !
 ! A2    A(2,1,4)              121.1435         estimate D2E/DX2                !
 ! A3    A(3,1,4)              117.7128         estimate D2E/DX2                !
 ! A4    A(1,2,5)              121.1435         estimate D2E/DX2                !
 ! A5    A(1,2,6)              121.1437         estimate D2E/DX2                !
 ! A6    A(5,2,6)              117.7128         estimate D2E/DX2                !
 ! D1    D(3,1,2,5)              0.0007         estimate D2E/DX2                !
 ! D2    D(3,1,2,6)            180.0            estimate D2E/DX2                !
 ! D3    D(4,1,2,5)           -179.9994         estimate D2E/DX2                !
 ! D4    D(4,1,2,6)             -0.0001         estimate D2E/DX2                !
 --------------------------------------------------------------------------------
 Trust Radius=3.00D-01 FncErr=1.00D-07 GrdErr=1.00D-07
 Number of steps in this run=     25 maximum allowed number of steps=    100.
 GradGradGradGradGradGradGradGradGradGradGradGradGradGradGradGradGradGrad

                          Input orientation:                          
 ---------------------------------------------------------------------
 Center     Atomic      Atomic             Coordinates (Angstroms)
 Number     Number       Type             X           Y           Z
 ---------------------------------------------------------------------
      1          6           0       -7.650680    3.041270    0.000000
      2          6           0       -6.331270    2.925120    0.000000
      3          1           0       -8.210800    3.090950   -0.930560
      4          1           0       -8.210860    3.090210    0.930560
      5          1           0       -5.771090    2.876190   -0.930560
      6          1           0       -5.771150    2.875440    0.930560
 ---------------------------------------------------------------------
                    Distance matrix (angstroms):
                    1          2          3          4          5
     1  C    0.000000
     2  C    1.324513   0.000000
     3  H    1.087265   2.103824   0.000000
     4  H    1.087262   2.103819   1.861120   0.000000
     5  H    2.103818   1.087262   2.449144   3.076045   0.000000
     6  H    2.103824   1.087265   3.076053   2.449145   1.861120
                    6
     6  H    0.000000
 Stoichiometry    C2H4
 Framework group  C1[X(C2H4)]
 Deg. of freedom    12
 Full point group                 C1      NOp   1
 Largest Abelian subgroup         C1      NOp   1
 Largest concise Abelian subgroup C1      NOp   1
                         Standard orientation:                         
 ---------------------------------------------------------------------
 Center     Atomic      Atomic             Coordinates (Angstroms)
 Number     Number       Type             X           Y           Z
 ---------------------------------------------------------------------
      1          6           0       -0.662256   -0.000001    0.000000
      2          6           0        0.662256    0.000001   -0.000002
      3          1           0       -1.224576    0.930558   -0.000002
      4          1           0       -1.224569   -0.930562    0.000003
      5          1           0        1.224568    0.930562    0.000006
      6          1           0        1.224576   -0.930558    0.000001
 ---------------------------------------------------------------------
 Rotational constants (GHZ):    144.7715521     30.4973425     25.1907084
 Standard basis: LANL2DZ (5D, 7F)
 There are    26 symmetry adapted cartesian basis functions of A   symmetry.
 There are    26 symmetry adapted basis functions of A   symmetry.
    26 basis functions,    66 primitive gaussians,    26 cartesian basis functions
     8 alpha electrons        8 beta electrons
       nuclear repulsion energy        33.4454879269 Hartrees.
 NAtoms=    6 NActive=    6 NUniq=    6 SFac= 1.00D+00 NAtFMM=   60 NAOKFM=F Big=F
 Integral buffers will be    131072 words long.
 Raffenetti 1 integral format.
 Two-electron integral symmetry is turned on.
 One-electron integrals computed using PRISM.
   1 Symmetry operations used in ECPInt.
 ECPInt:  NShTT=     171 NPrTT=    1149 LenC2=     172 LenP2D=    1050.
 LDataN:  DoStor=T MaxTD1= 2 Len=   12
 NBasis=    26 RedAO= T EigKep=  4.25D-03  NBF=    26
 NBsUse=    26 1.00D-06 EigRej= -1.00D+00 NBFU=    26
 ExpMin= 1.15D-01 ExpMax= 4.23D+03 ExpMxC= 1.46D+02 IAcc=1 IRadAn=         1 AccDes= 0.00D+00
 Harris functional with IExCor=  205 and IRadAn=       1 diagonalized for initial guess.
 HarFok:  IExCor=  205 AccDes= 0.00D+00 IRadAn=         1 IDoV= 1 UseB2=F ITyADJ=14
 ICtDFT=  3500011 ScaDFX=  1.000000  1.000000  1.000000  1.000000
 FoFCou: FMM=F IPFlag=           0 FMFlag=      100000 FMFlg1=           0
         NFxFlg=           0 DoJE=T BraDBF=F KetDBF=T FulRan=T
         wScrn=  0.000000 ICntrl=     500 IOpCl=  0 I1Cent=   200000004 NGrid=           0
         NMat0=    1 NMatS0=      1 NMatT0=    0 NMatD0=    1 NMtDS0=    0 NMtDT0=    0
 Petite list used in FoFCou.
 Keep R1 ints in memory in canonical form, NReq=901392.
 Requested convergence on RMS density matrix=1.00D-08 within 128 cycles.
 Requested convergence on MAX density matrix=1.00D-06.
 Requested convergence on             energy=1.00D-06.
 No special actions if energy rises.
 SCF Done:  E(RHF) =  -78.0110654662     A.U. after    9 cycles
            NFock=  9  Conv=0.28D-08     -V/T= 1.9996
 ExpMin= 1.15D-01 ExpMax= 4.23D+03 ExpMxC= 1.46D+02 IAcc=3 IRadAn=         5 AccDes= 0.00D+00
 HarFok:  IExCor=  205 AccDes= 0.00D+00 IRadAn=         5 IDoV=-2 UseB2=F ITyADJ=14
 ICtDFT= 12500011 ScaDFX=  1.000000  1.000000  1.000000  1.000000
 Range of M.O.s used for correlation:     3    26
 NBasis=    26 NAE=     8 NBE=     8 NFC=     2 NFV=     0
 NROrb=     24 NOA=     6 NOB=     6 NVA=    18 NVB=    18
 Fully direct method using O(ONN) memory.
 JobTyp=1 Pass  1:  I=   3 to   8 NPSUse=  3 ParTrn=F ParDer=T DoDerP=T.
 Spin components of T(2) and E(2):
     alpha-alpha T2 =       0.7483701959D-02 E2=     -0.1681933561D-01
     alpha-beta  T2 =       0.5962592310D-01 E2=     -0.1355946116D+00
     beta-beta   T2 =       0.7483701959D-02 E2=     -0.1681933561D-01
 ANorm=    0.1036625934D+01
 E2 =    -0.1692332828D+00 EUMP2 =    -0.78180298749061D+02
          IDoAtm=111111
          Differentiating once with respect to electric field.
                with respect to dipole field.
          Differentiating once with respect to nuclear coordinates.
 Keep R1 ints in memory in canonical form, NReq=888131.
          There are     1 degrees of freedom in the 1st order CPHF.  IDoFFX=0 NUNeed=     1.
 LinEq1:  Iter=  0 NonCon=     1 RMS=6.09D-03 Max=6.14D-02 NDo=     1
 AX will form     1 AO Fock derivatives at one time.
 LinEq1:  Iter=  1 NonCon=     1 RMS=1.08D-03 Max=6.27D-03 NDo=     1
 LinEq1:  Iter=  2 NonCon=     1 RMS=2.35D-04 Max=1.41D-03 NDo=     1
 LinEq1:  Iter=  3 NonCon=     1 RMS=1.73D-05 Max=1.17D-04 NDo=     1
 LinEq1:  Iter=  4 NonCon=     1 RMS=1.11D-06 Max=5.80D-06 NDo=     1
 LinEq1:  Iter=  5 NonCon=     1 RMS=9.76D-08 Max=5.33D-07 NDo=     1
 LinEq1:  Iter=  6 NonCon=     1 RMS=9.69D-09 Max=4.78D-08 NDo=     1
 LinEq1:  Iter=  7 NonCon=     1 RMS=6.94D-10 Max=3.46D-09 NDo=     1
 LinEq1:  Iter=  8 NonCon=     0 RMS=8.20D-11 Max=5.45D-10 NDo=     1
 Linear equations converged to 1.000D-10 1.000D-09 after     8 iterations.
 End of Minotr F.D. properties file   721 does not exist.
 End of Minotr F.D. properties file   722 does not exist.
 End of Minotr F.D. properties file   788 does not exist.

 **********************************************************************

            Population analysis using the SCF density.

 **********************************************************************

 Orbital symmetries:
       Occupied  (A) (A) (A) (A) (A) (A) (A) (A)
       Virtual   (A) (A) (A) (A) (A) (A) (A) (A) (A) (A) (A) (A)
                 (A) (A) (A) (A) (A) (A)
 The electronic state is 1-A.
 Alpha  occ. eigenvalues --  -11.24019 -11.23846  -1.04305  -0.78890  -0.64850
 Alpha  occ. eigenvalues --   -0.58694  -0.50213  -0.37917
 Alpha virt. eigenvalues --    0.14876   0.26288   0.28724   0.36780   0.39972
 Alpha virt. eigenvalues --    0.41239   0.44076   0.47090   0.48708   0.61716
 Alpha virt. eigenvalues --    0.69174   0.78625   0.92700   1.23452   1.31798
 Alpha virt. eigenvalues --    1.38737   1.46761   1.69499
          Condensed to atoms (all electrons):
               1          2          3          4          5          6
     1  C    5.068865   0.573617   0.401050   0.401050  -0.043649  -0.043649
     2  C    0.573617   5.068865  -0.043649  -0.043649   0.401050   0.401050
     3  H    0.401050  -0.043649   0.487720  -0.022092  -0.003743   0.002073
     4  H    0.401050  -0.043649  -0.022092   0.487720   0.002073  -0.003743
     5  H   -0.043649   0.401050  -0.003743   0.002073   0.487720  -0.022092
     6  H   -0.043649   0.401050   0.002073  -0.003743  -0.022092   0.487720
 Mulliken charges:
               1
     1  C   -0.357284
     2  C   -0.357284
     3  H    0.178642
     4  H    0.178642
     5  H    0.178642
     6  H    0.178642
 Sum of Mulliken charges =   0.00000
 Mulliken charges with hydrogens summed into heavy atoms:
               1
     1  C    0.000000
     2  C    0.000000
 Electronic spatial extent (au):  <R**2>=             82.8222
 Charge=              0.0000 electrons
 Dipole moment (field-independent basis, Debye):
    X=              0.0000    Y=              0.0000    Z=              0.0000  Tot=              0.0000
 Quadrupole moment (field-independent basis, Debye-Ang):
   XX=            -12.2740   YY=            -12.2303   ZZ=            -16.1668
   XY=              0.0000   XZ=              0.0000   YZ=              0.0000
 Traceless Quadrupole moment (field-independent basis, Debye-Ang):
   XX=              1.2831   YY=              1.3267   ZZ=             -2.6098
   XY=              0.0000   XZ=              0.0000   YZ=              0.0000
 Octapole moment (field-independent basis, Debye-Ang**2):
  XXX=              0.0000  YYY=              0.0000  ZZZ=              0.0000  XYY=              0.0000
  XXY=              0.0000  XXZ=              0.0000  XZZ=              0.0000  YZZ=              0.0000
  YYZ=              0.0000  XYZ=              0.0000
 Hexadecapole moment (field-independent basis, Debye-Ang**3):
 XXXX=            -65.8933 YYYY=            -25.9895 ZZZZ=            -19.9286 XXXY=              0.0000
 XXXZ=              0.0000 YYYX=              0.0000 YYYZ=              0.0000 ZZZX=              0.0000
 ZZZY=              0.0000 XXYY=            -12.6862 XXZZ=            -15.5136 YYZZ=             -8.3121
 XXYZ=              0.0000 YYXZ=              0.0000 ZZXY=              0.0000
 N-N= 3.344548792691D+01 E-N=-2.481013999764D+02  KE= 7.804298684098D+01
   1 Symmetry operations used in ECPInt.
 ECPInt:  NShTT=     171 NPrTT=    1149 LenC2=     172 LenP2D=    1050.
 LDataN:  DoStor=T MaxTD1= 3 Len=   28
 Calling FoFJK, ICntrl=  10002127 FMM=F ISym2X=0 I1Cent= 0 IOpClX= 0 NMat=1 NMatS=1 NMatT=0.
 ***** Axes restored to original set *****
 -------------------------------------------------------------------
 Center     Atomic                   Forces (Hartrees/Bohr)
 Number     Number              X              Y              Z
 -------------------------------------------------------------------
      1        6          -0.044933726    0.003955467   -0.000000817
      2        6           0.044933533   -0.003954900    0.000001081
      3        1          -0.004715956    0.000416303   -0.002456682
      4        1          -0.004717529    0.000414059    0.002458196
      5        1           0.004717696   -0.000414750   -0.002458430
      6        1           0.004715982   -0.000416180    0.002456652
 -------------------------------------------------------------------
 Cartesian Forces:  Max     0.044933726 RMS     0.015244650

 GradGradGradGradGradGradGradGradGradGradGradGradGradGradGradGradGradGrad
 Berny optimization.
 FormGI is forming the generalized inverse of G from B-inverse, IUseBI=4.
 Internal  Forces:  Max     0.054577448 RMS     0.014387817
 Search for a local minimum.
 Step number   1 out of a maximum of   25
 All quantities printed in internal units (Hartrees-Bohrs-Radians)
 Mixed Optimization -- RFO/linear search
 Second derivative matrix not updated -- first step.
 The second derivative matrix:
                          R1        R2        R3        R4        R5
           R1           0.60821
           R2           0.00000   0.35131
           R3           0.00000   0.00000   0.35131
           R4           0.00000   0.00000   0.00000   0.35131
           R5           0.00000   0.00000   0.00000   0.00000   0.35131
           A1           0.00000   0.00000   0.00000   0.00000   0.00000
           A2           0.00000   0.00000   0.00000   0.00000   0.00000
           A3           0.00000   0.00000   0.00000   0.00000   0.00000
           A4           0.00000   0.00000   0.00000   0.00000   0.00000
           A5           0.00000   0.00000   0.00000   0.00000   0.00000
           A6           0.00000   0.00000   0.00000   0.00000   0.00000
           D1           0.00000   0.00000   0.00000   0.00000   0.00000
           D2           0.00000   0.00000   0.00000   0.00000   0.00000
           D3           0.00000   0.00000   0.00000   0.00000   0.00000
           D4           0.00000   0.00000   0.00000   0.00000   0.00000
                          A1        A2        A3        A4        A5
           A1           0.16000
           A2           0.00000   0.16000
           A3           0.00000   0.00000   0.16000
           A4           0.00000   0.00000   0.00000   0.16000
           A5           0.00000   0.00000   0.00000   0.00000   0.16000
           A6           0.00000   0.00000   0.00000   0.00000   0.00000
           D1           0.00000   0.00000   0.00000   0.00000   0.00000
           D2           0.00000   0.00000   0.00000   0.00000   0.00000
           D3           0.00000   0.00000   0.00000   0.00000   0.00000
           D4           0.00000   0.00000   0.00000   0.00000   0.00000
                          A6        D1        D2        D3        D4
           A6           0.16000
           D1           0.00000   0.03087
           D2           0.00000   0.00000   0.03087
           D3           0.00000   0.00000   0.00000   0.03087
           D4           0.00000   0.00000   0.00000   0.00000   0.03087
 ITU=  0
     Eigenvalues ---    0.03087   0.03087   0.03087   0.16000   0.16000
     Eigenvalues ---    0.16000   0.16000   0.35131   0.35131   0.35131
     Eigenvalues ---    0.35131   0.60821
 RFO step:  Lambda=-5.35059527D-03 EMin= 3.08730960D-02
 Linear search not attempted -- first point.
 Iteration  1 RMS(Cart)=  0.04026534 RMS(Int)=  0.00009488
 Iteration  2 RMS(Cart)=  0.00010366 RMS(Int)=  0.00000000
 Iteration  3 RMS(Cart)=  0.00000001 RMS(Int)=  0.00000000
 Variable       Old X    -DE/DX   Delta X   Delta X   Delta X     New X
                                 (Linear)    (Quad)   (Total)
    R1        2.50297   0.05458   0.00000   0.08895   0.08895   2.59192
    R2        2.05463   0.00455   0.00000   0.01276   0.01276   2.06739
    R3        2.05463   0.00455   0.00000   0.01277   0.01277   2.06739
    R4        2.05463   0.00455   0.00000   0.01277   0.01277   2.06739
    R5        2.05463   0.00455   0.00000   0.01276   0.01276   2.06739
    A1        2.11436   0.00190   0.00000   0.01152   0.01152   2.12588
    A2        2.11435   0.00191   0.00000   0.01152   0.01152   2.12588
    A3        2.05448  -0.00381   0.00000  -0.02304  -0.02304   2.03143
    A4        2.11435   0.00191   0.00000   0.01152   0.01152   2.12588
    A5        2.11436   0.00190   0.00000   0.01152   0.01152   2.12588
    A6        2.05448  -0.00381   0.00000  -0.02304  -0.02304   2.03143
    D1        0.00001   0.00000   0.00000  -0.00001  -0.00001   0.00000
    D2        3.14159   0.00000   0.00000   0.00000   0.00000  -3.14159
    D3       -3.14158   0.00000   0.00000  -0.00001  -0.00001   3.14159
    D4        0.00000   0.00000   0.00000   0.00000   0.00000   0.00000
         Item               Value     Threshold  Converged?
 Maximum Force            0.054577     0.000450     NO 
 RMS     Force            0.014388     0.000300     NO 
 Maximum Displacement     0.071121     0.001800     NO 
 RMS     Displacement     0.040293     0.001200     NO 
 Predicted change in Energy=-2.702468D-03
 GradGradGradGradGradGradGradGradGradGradGradGradGradGradGradGradGradGrad

                          Input orientation:                          
 ---------------------------------------------------------------------
 Center     Atomic      Atomic             Coordinates (Angstroms)
 Number     Number       Type             X           Y           Z
 ---------------------------------------------------------------------
      1          6           0       -7.674125    3.043335    0.000001
      2          6           0       -6.307825    2.923060   -0.000001
      3          1           0       -8.248431    3.094264   -0.929758
      4          1           0       -8.248496    3.093520    0.929761
      5          1           0       -5.733454    2.872873   -0.929761
      6          1           0       -5.733519    2.872128    0.929758
 ---------------------------------------------------------------------
                    Distance matrix (angstroms):
                    1          2          3          4          5
     1  C    0.000000
     2  C    1.371584   0.000000
     3  H    1.094017   2.158637   0.000000
     4  H    1.094017   2.158638   1.859520   0.000000
     5  H    2.158638   1.094017   2.524703   3.135593   0.000000
     6  H    2.158637   1.094017   3.135591   2.524703   1.859520
                    6
     6  H    0.000000
 Stoichiometry    C2H4
 Framework group  C1[X(C2H4)]
 Deg. of freedom    12
 Full point group                 C1      NOp   1
 Largest Abelian subgroup         C1      NOp   1
 Largest concise Abelian subgroup C1      NOp   1
                         Standard orientation:                         
 ---------------------------------------------------------------------
 Center     Atomic      Atomic             Coordinates (Angstroms)
 Number     Number       Type             X           Y           Z
 ---------------------------------------------------------------------
      1          6           0       -0.685792    0.000000    0.000000
      2          6           0        0.685792    0.000000    0.000000
      3          1           0       -1.262351    0.929760   -0.000001
      4          1           0       -1.262352   -0.929759   -0.000001
      5          1           0        1.262352    0.929760    0.000000
      6          1           0        1.262351   -0.929760   -0.000001
 ---------------------------------------------------------------------
 Rotational constants (GHZ):    145.0208644     28.5340117     23.8427588
 Standard basis: LANL2DZ (5D, 7F)
 There are    26 symmetry adapted cartesian basis functions of A   symmetry.
 There are    26 symmetry adapted basis functions of A   symmetry.
    26 basis functions,    66 primitive gaussians,    26 cartesian basis functions
     8 alpha electrons        8 beta electrons
       nuclear repulsion energy        32.7074899489 Hartrees.
 NAtoms=    6 NActive=    6 NUniq=    6 SFac= 1.00D+00 NAtFMM=   60 NAOKFM=F Big=F
 Integral buffers will be    131072 words long.
 Raffenetti 1 integral format.
 Two-electron integral symmetry is turned on.
 One-electron integrals computed using PRISM.
   1 Symmetry operations used in ECPInt.
 ECPInt:  NShTT=     171 NPrTT=    1149 LenC2=     172 LenP2D=    1044.
 LDataN:  DoStor=T MaxTD1= 2 Len=   12
 NBasis=    26 RedAO= T EigKep=  4.78D-03  NBF=    26
 NBsUse=    26 1.00D-06 EigRej= -1.00D+00 NBFU=    26
 Initial guess from the checkpoint file:  "/scr/Gau-4832.chk"
 B after Tr=     0.000000    0.000000    0.000000
         Rot=    1.000000    0.000000    0.000000    0.000001 Ang=   0.00 deg.
 ExpMin= 1.15D-01 ExpMax= 4.23D+03 ExpMxC= 1.46D+02 IAcc=1 IRadAn=         1 AccDes= 0.00D+00
 Harris functional with IExCor=  205 and IRadAn=       1 diagonalized for initial guess.
 HarFok:  IExCor=  205 AccDes= 0.00D+00 IRadAn=         1 IDoV= 1 UseB2=F ITyADJ=14
 ICtDFT=  3500011 ScaDFX=  1.000000  1.000000  1.000000  1.000000
 FoFCou: FMM=F IPFlag=           0 FMFlag=      100000 FMFlg1=           0
         NFxFlg=           0 DoJE=T BraDBF=F KetDBF=T FulRan=T
         wScrn=  0.000000 ICntrl=     500 IOpCl=  0 I1Cent=   200000004 NGrid=           0
         NMat0=    1 NMatS0=      1 NMatT0=    0 NMatD0=    1 NMtDS0=    0 NMtDT0=    0
 Petite list used in FoFCou.
 Keep R1 ints in memory in canonical form, NReq=901280.
 Requested convergence on RMS density matrix=1.00D-08 within 128 cycles.
 Requested convergence on MAX density matrix=1.00D-06.
 Requested convergence on             energy=1.00D-06.
 No special actions if energy rises.
 SCF Done:  E(RHF) =  -78.0090428302     A.U. after    8 cycles
            NFock=  8  Conv=0.88D-09     -V/T= 2.0019
 ExpMin= 1.15D-01 ExpMax= 4.23D+03 ExpMxC= 1.46D+02 IAcc=3 IRadAn=         5 AccDes= 0.00D+00
 HarFok:  IExCor=  205 AccDes= 0.00D+00 IRadAn=         5 IDoV=-2 UseB2=F ITyADJ=14
 ICtDFT= 12500011 ScaDFX=  1.000000  1.000000  1.000000  1.000000
 Range of M.O.s used for correlation:     3    26
 NBasis=    26 NAE=     8 NBE=     8 NFC=     2 NFV=     0
 NROrb=     24 NOA=     6 NOB=     6 NVA=    18 NVB=    18
 Fully direct method using O(ONN) memory.
 JobTyp=1 Pass  1:  I=   3 to   8 NPSUse=  3 ParTrn=F ParDer=T DoDerP=T.
 Spin components of T(2) and E(2):
     alpha-alpha T2 =       0.7893151767D-02 E2=     -0.1730874978D-01
     alpha-beta  T2 =       0.6287126991D-01 E2=     -0.1389581280D+00
     beta-beta   T2 =       0.7893151767D-02 E2=     -0.1730874978D-01
 ANorm=    0.1038584408D+01
 E2 =    -0.1735756275D+00 EUMP2 =    -0.78182618457780D+02
          IDoAtm=111111
          Differentiating once with respect to electric field.
                with respect to dipole field.
          Differentiating once with respect to nuclear coordinates.
 Keep R1 ints in memory in canonical form, NReq=888055.
          There are     1 degrees of freedom in the 1st order CPHF.  IDoFFX=0 NUNeed=     1.
 LinEq1:  Iter=  0 NonCon=     1 RMS=6.77D-03 Max=7.12D-02 NDo=     1
 AX will form     1 AO Fock derivatives at one time.
 LinEq1:  Iter=  1 NonCon=     1 RMS=1.35D-03 Max=8.04D-03 NDo=     1
 LinEq1:  Iter=  2 NonCon=     1 RMS=2.47D-04 Max=1.46D-03 NDo=     1
 LinEq1:  Iter=  3 NonCon=     1 RMS=1.74D-05 Max=1.17D-04 NDo=     1
 LinEq1:  Iter=  4 NonCon=     1 RMS=1.17D-06 Max=5.79D-06 NDo=     1
 LinEq1:  Iter=  5 NonCon=     1 RMS=1.01D-07 Max=5.43D-07 NDo=     1
 LinEq1:  Iter=  6 NonCon=     1 RMS=1.03D-08 Max=5.27D-08 NDo=     1
 LinEq1:  Iter=  7 NonCon=     1 RMS=6.95D-10 Max=3.56D-09 NDo=     1
 LinEq1:  Iter=  8 NonCon=     0 RMS=4.96D-11 Max=1.91D-10 NDo=     1
 Linear equations converged to 1.000D-10 1.000D-09 after     8 iterations.
 End of Minotr F.D. properties file   721 does not exist.
 End of Minotr F.D. properties file   722 does not exist.
 End of Minotr F.D. properties file   788 does not exist.
   1 Symmetry operations used in ECPInt.
 ECPInt:  NShTT=     171 NPrTT=    1149 LenC2=     172 LenP2D=    1044.
 LDataN:  DoStor=T MaxTD1= 3 Len=   28
 Calling FoFJK, ICntrl=  10002127 FMM=F ISym2X=0 I1Cent= 0 IOpClX= 0 NMat=1 NMatS=1 NMatT=0.
 ***** Axes restored to original set *****
 -------------------------------------------------------------------
 Center     Atomic                   Forces (Hartrees/Bohr)
 Number     Number              X              Y              Z
 -------------------------------------------------------------------
      1        6           0.003508434   -0.000309051    0.000000004
      2        6          -0.003508494    0.000308833   -0.000000025
      3        1           0.000569380   -0.000049816   -0.000526306
      4        1           0.000569508   -0.000050277    0.000526180
      5        1          -0.000569484    0.000050361   -0.000526162
      6        1          -0.000569344    0.000049950    0.000526310
 -------------------------------------------------------------------
 Cartesian Forces:  Max     0.003508494 RMS     0.001229821

 GradGradGradGradGradGradGradGradGradGradGradGradGradGradGradGradGradGrad
 Berny optimization.
 Using GEDIIS/GDIIS optimizer.
 FormGI is forming the generalized inverse of G from B-inverse, IUseBI=4.
 Internal  Forces:  Max     0.004665298 RMS     0.001295354
 Search for a local minimum.
 Step number   2 out of a maximum of   25
 All quantities printed in internal units (Hartrees-Bohrs-Radians)
 Mixed Optimization -- RFO/linear search
 Update second derivatives using D2CorX and points    1    2
 DE= -2.32D-03 DEPred=-2.70D-03 R= 8.58D-01
 TightC=F SS=  1.41D+00  RLast= 1.01D-01 DXNew= 5.0454D-01 3.0235D-01
 Trust test= 8.58D-01 RLast= 1.01D-01 DXMaxT set to 3.02D-01
 The second derivative matrix:
                          R1        R2        R3        R4        R5
           R1           0.65748
           R2          -0.00104   0.35084
           R3          -0.00103  -0.00047   0.35084
           R4          -0.00103  -0.00047  -0.00047   0.35084
           R5          -0.00104  -0.00047  -0.00047  -0.00047   0.35084
           A1           0.00587   0.00028   0.00028   0.00028   0.00028
           A2           0.00587   0.00028   0.00028   0.00028   0.00028
           A3          -0.01174  -0.00055  -0.00055  -0.00055  -0.00055
           A4           0.00587   0.00028   0.00028   0.00028   0.00028
           A5           0.00587   0.00028   0.00028   0.00028   0.00028
           A6          -0.01174  -0.00055  -0.00055  -0.00055  -0.00055
           D1           0.00000   0.00000   0.00000   0.00000   0.00000
           D2           0.00000   0.00000   0.00000   0.00000   0.00000
           D3           0.00000   0.00000   0.00000   0.00000   0.00000
           D4           0.00000   0.00000   0.00000   0.00000   0.00000
                          A1        A2        A3        A4        A5
           A1           0.16037
           A2           0.00037   0.16037
           A3          -0.00074  -0.00074   0.16149
           A4           0.00037   0.00037  -0.00074   0.16037
           A5           0.00037   0.00037  -0.00074   0.00037   0.16037
           A6          -0.00074  -0.00074   0.00149  -0.00074  -0.00074
           D1           0.00000   0.00000   0.00000   0.00000   0.00000
           D2           0.00000   0.00000   0.00000   0.00000   0.00000
           D3           0.00000   0.00000   0.00000   0.00000   0.00000
           D4           0.00000   0.00000   0.00000   0.00000   0.00000
                          A6        D1        D2        D3        D4
           A6           0.16149
           D1           0.00000   0.03087
           D2           0.00000   0.00000   0.03087
           D3           0.00000   0.00000   0.00000   0.03087
           D4           0.00000   0.00000   0.00000   0.00000   0.03087
 ITU=  1  0
 Use linear search instead of GDIIS.
     Eigenvalues ---    0.03087   0.03087   0.03087   0.16000   0.16000
     Eigenvalues ---    0.16000   0.16360   0.34945   0.35131   0.35131
     Eigenvalues ---    0.35131   0.65833
 RFO step:  Lambda=-1.28477617D-05 EMin= 3.08730960D-02
 Quartic linear search produced a step of -0.09214.
 Iteration  1 RMS(Cart)=  0.00544782 RMS(Int)=  0.00000591
 Iteration  2 RMS(Cart)=  0.00000591 RMS(Int)=  0.00000000
 Iteration  3 RMS(Cart)=  0.00000000 RMS(Int)=  0.00000000
 Variable       Old X    -DE/DX   Delta X   Delta X   Delta X     New X
                                 (Linear)    (Quad)   (Total)
    R1        2.59192  -0.00467  -0.00820   0.00070  -0.00750   2.58442
    R2        2.06739   0.00015  -0.00118   0.00140   0.00022   2.06762
    R3        2.06739   0.00015  -0.00118   0.00140   0.00022   2.06762
    R4        2.06739   0.00015  -0.00118   0.00140   0.00022   2.06762
    R5        2.06739   0.00015  -0.00118   0.00140   0.00022   2.06762
    A1        2.12588  -0.00053  -0.00106  -0.00226  -0.00332   2.12255
    A2        2.12588  -0.00053  -0.00106  -0.00226  -0.00333   2.12255
    A3        2.03143   0.00105   0.00212   0.00453   0.00665   2.03808
    A4        2.12588  -0.00053  -0.00106  -0.00226  -0.00333   2.12255
    A5        2.12588  -0.00053  -0.00106  -0.00226  -0.00332   2.12255
    A6        2.03143   0.00105   0.00212   0.00453   0.00665   2.03808
    D1        0.00000   0.00000   0.00000   0.00000   0.00000   0.00000
    D2       -3.14159   0.00000   0.00000   0.00000   0.00000   3.14159
    D3        3.14159   0.00000   0.00000   0.00000   0.00000  -3.14159
    D4        0.00000   0.00000   0.00000   0.00000   0.00000   0.00000
         Item               Value     Threshold  Converged?
 Maximum Force            0.004665     0.000450     NO 
 RMS     Force            0.001295     0.000300     NO 
 Maximum Displacement     0.009444     0.001800     NO 
 RMS     Displacement     0.005449     0.001200     NO 
 Predicted change in Energy=-2.491552D-05
 GradGradGradGradGradGradGradGradGradGradGradGradGradGradGradGradGradGrad

                          Input orientation:                          
 ---------------------------------------------------------------------
 Center     Atomic      Atomic             Coordinates (Angstroms)
 Number     Number       Type             X           Y           Z
 ---------------------------------------------------------------------
      1          6           0       -7.672149    3.043160    0.000001
      2          6           0       -6.309801    2.923232   -0.000001
      3          1           0       -8.243434    3.093825   -0.931770
      4          1           0       -8.243498    3.093080    0.931773
      5          1           0       -5.738452    2.873314   -0.931773
      6          1           0       -5.738516    2.872568    0.931770
 ---------------------------------------------------------------------
                    Distance matrix (angstroms):
                    1          2          3          4          5
     1  C    0.000000
     2  C    1.367617   0.000000
     3  H    1.094135   2.153192   0.000000
     4  H    1.094135   2.153192   1.863543   0.000000
     5  H    2.153192   1.094135   2.514669   3.129913   0.000000
     6  H    2.153192   1.094135   3.129913   2.514670   1.863543
                    6
     6  H    0.000000
 Stoichiometry    C2H4
 Framework group  C1[X(C2H4)]
 Deg. of freedom    12
 Full point group                 C1      NOp   1
 Largest Abelian subgroup         C1      NOp   1
 Largest concise Abelian subgroup C1      NOp   1
                         Standard orientation:                         
 ---------------------------------------------------------------------
 Center     Atomic      Atomic             Coordinates (Angstroms)
 Number     Number       Type             X           Y           Z
 ---------------------------------------------------------------------
      1          6           0       -0.683808    0.000000    0.000000
      2          6           0        0.683808    0.000000    0.000000
      3          1           0       -1.257335    0.931772    0.000000
      4          1           0       -1.257335   -0.931772    0.000001
      5          1           0        1.257335    0.931772    0.000001
      6          1           0        1.257335   -0.931772    0.000001
 ---------------------------------------------------------------------
 Rotational constants (GHZ):    144.3953099     28.7223947     23.9569898
 Standard basis: LANL2DZ (5D, 7F)
 There are    26 symmetry adapted cartesian basis functions of A   symmetry.
 There are    26 symmetry adapted basis functions of A   symmetry.
    26 basis functions,    66 primitive gaussians,    26 cartesian basis functions
     8 alpha electrons        8 beta electrons
       nuclear repulsion energy        32.7624744990 Hartrees.
 NAtoms=    6 NActive=    6 NUniq=    6 SFac= 1.00D+00 NAtFMM=   60 NAOKFM=F Big=F
 Integral buffers will be    131072 words long.
 Raffenetti 1 integral format.
 Two-electron integral symmetry is turned on.
 One-electron integrals computed using PRISM.
   1 Symmetry operations used in ECPInt.
 ECPInt:  NShTT=     171 NPrTT=    1149 LenC2=     172 LenP2D=    1046.
 LDataN:  DoStor=T MaxTD1= 2 Len=   12
 NBasis=    26 RedAO= T EigKep=  4.70D-03  NBF=    26
 NBsUse=    26 1.00D-06 EigRej= -1.00D+00 NBFU=    26
 Initial guess from the checkpoint file:  "/scr/Gau-4832.chk"
 B after Tr=     0.000000    0.000000    0.000000
         Rot=    1.000000    0.000000    0.000000    0.000000 Ang=   0.00 deg.
 Keep R1 ints in memory in canonical form, NReq=901308.
 Requested convergence on RMS density matrix=1.00D-08 within 128 cycles.
 Requested convergence on MAX density matrix=1.00D-06.
 Requested convergence on             energy=1.00D-06.
 No special actions if energy rises.
 SCF Done:  E(RHF) =  -78.0093723932     A.U. after    7 cycles
            NFock=  7  Conv=0.21D-08     -V/T= 2.0018
 ExpMin= 1.15D-01 ExpMax= 4.23D+03 ExpMxC= 1.46D+02 IAcc=3 IRadAn=         5 AccDes= 0.00D+00
 HarFok:  IExCor=  205 AccDes= 0.00D+00 IRadAn=         5 IDoV=-2 UseB2=F ITyADJ=14
 ICtDFT= 12500011 ScaDFX=  1.000000  1.000000  1.000000  1.000000
 Range of M.O.s used for correlation:     3    26
 NBasis=    26 NAE=     8 NBE=     8 NFC=     2 NFV=     0
 NROrb=     24 NOA=     6 NOB=     6 NVA=    18 NVB=    18
 Fully direct method using O(ONN) memory.
 JobTyp=1 Pass  1:  I=   3 to   8 NPSUse=  3 ParTrn=F ParDer=T DoDerP=T.
 Spin components of T(2) and E(2):
     alpha-alpha T2 =       0.7862018590D-02 E2=     -0.1727383074D-01
     alpha-beta  T2 =       0.6262951295D-01 E2=     -0.1387268216D+00
     beta-beta   T2 =       0.7862018590D-02 E2=     -0.1727383074D-01
 ANorm=    0.1038438034D+01
 E2 =    -0.1732744830D+00 EUMP2 =    -0.78182646876231D+02
          IDoAtm=111111
          Differentiating once with respect to electric field.
                with respect to dipole field.
          Differentiating once with respect to nuclear coordinates.
 Keep R1 ints in memory in canonical form, NReq=888055.
          There are     1 degrees of freedom in the 1st order CPHF.  IDoFFX=0 NUNeed=     1.
 LinEq1:  Iter=  0 NonCon=     1 RMS=6.71D-03 Max=7.04D-02 NDo=     1
 AX will form     1 AO Fock derivatives at one time.
 LinEq1:  Iter=  1 NonCon=     1 RMS=1.33D-03 Max=7.91D-03 NDo=     1
 LinEq1:  Iter=  2 NonCon=     1 RMS=2.46D-04 Max=1.44D-03 NDo=     1
 LinEq1:  Iter=  3 NonCon=     1 RMS=1.74D-05 Max=1.18D-04 NDo=     1
 LinEq1:  Iter=  4 NonCon=     1 RMS=1.16D-06 Max=5.80D-06 NDo=     1
 LinEq1:  Iter=  5 NonCon=     1 RMS=1.00D-07 Max=5.44D-07 NDo=     1
 LinEq1:  Iter=  6 NonCon=     1 RMS=1.03D-08 Max=5.22D-08 NDo=     1
 LinEq1:  Iter=  7 NonCon=     1 RMS=6.96D-10 Max=3.54D-09 NDo=     1
 LinEq1:  Iter=  8 NonCon=     0 RMS=4.82D-11 Max=1.91D-10 NDo=     1
 Linear equations converged to 1.000D-10 1.000D-09 after     8 iterations.
 End of Minotr F.D. properties file   721 does not exist.
 End of Minotr F.D. properties file   722 does not exist.
 End of Minotr F.D. properties file   788 does not exist.
   1 Symmetry operations used in ECPInt.
 ECPInt:  NShTT=     171 NPrTT=    1149 LenC2=     172 LenP2D=    1046.
 LDataN:  DoStor=T MaxTD1= 3 Len=   28
 Calling FoFJK, ICntrl=  10002127 FMM=F ISym2X=0 I1Cent= 0 IOpClX= 0 NMat=1 NMatS=1 NMatT=0.
 ***** Axes restored to original set *****
 -------------------------------------------------------------------
 Center     Atomic                   Forces (Hartrees/Bohr)
 Number     Number              X              Y              Z
 -------------------------------------------------------------------
      1        6          -0.000204996    0.000018077   -0.000000011
      2        6           0.000204998   -0.000017866    0.000000012
      3        1           0.000049197   -0.000004325   -0.000018683
      4        1           0.000049163   -0.000004399    0.000018711
      5        1          -0.000049167    0.000004232   -0.000018709
      6        1          -0.000049195    0.000004281    0.000018680
 -------------------------------------------------------------------
 Cartesian Forces:  Max     0.000204998 RMS     0.000072969

 GradGradGradGradGradGradGradGradGradGradGradGradGradGradGradGradGradGrad
 Berny optimization.
 Using GEDIIS/GDIIS optimizer.
 FormGI is forming the generalized inverse of G from B-inverse, IUseBI=4.
 Internal  Forces:  Max     0.000107045 RMS     0.000042564
 Search for a local minimum.
 Step number   3 out of a maximum of   25
 All quantities printed in internal units (Hartrees-Bohrs-Radians)
 Mixed Optimization -- En-DIIS/RFO-DIIS
 Update second derivatives using D2CorX and points    1    2    3
 DE= -2.84D-05 DEPred=-2.49D-05 R= 1.14D+00
 TightC=F SS=  1.41D+00  RLast= 1.37D-02 DXNew= 5.0848D-01 4.1249D-02
 Trust test= 1.14D+00 RLast= 1.37D-02 DXMaxT set to 3.02D-01
 The second derivative matrix:
                          R1        R2        R3        R4        R5
           R1           0.63872
           R2          -0.00835   0.35133
           R3          -0.00835   0.00002   0.35133
           R4          -0.00835   0.00002   0.00002   0.35133
           R5          -0.00835   0.00002   0.00002   0.00002   0.35133
           A1          -0.00060  -0.00038  -0.00038  -0.00038  -0.00038
           A2          -0.00060  -0.00038  -0.00038  -0.00038  -0.00038
           A3           0.00120   0.00077   0.00077   0.00077   0.00077
           A4          -0.00060  -0.00038  -0.00038  -0.00038  -0.00038
           A5          -0.00060  -0.00038  -0.00038  -0.00038  -0.00038
           A6           0.00120   0.00077   0.00077   0.00077   0.00077
           D1           0.00000   0.00000   0.00000   0.00000   0.00000
           D2           0.00001   0.00000   0.00000   0.00000   0.00000
           D3          -0.00001   0.00000   0.00000   0.00000   0.00000
           D4           0.00000   0.00000   0.00000   0.00000   0.00000
                          A1        A2        A3        A4        A5
           A1           0.15906
           A2          -0.00094   0.15906
           A3           0.00189   0.00189   0.15623
           A4          -0.00094  -0.00094   0.00189   0.15906
           A5          -0.00094  -0.00094   0.00189  -0.00094   0.15906
           A6           0.00189   0.00189  -0.00377   0.00189   0.00189
           D1           0.00000   0.00000   0.00000   0.00000   0.00000
           D2           0.00000   0.00000   0.00000   0.00000   0.00000
           D3           0.00000   0.00000   0.00000   0.00000   0.00000
           D4           0.00000   0.00000   0.00000   0.00000   0.00000
                          A6        D1        D2        D3        D4
           A6           0.15623
           D1           0.00000   0.03087
           D2           0.00000   0.00000   0.03087
           D3           0.00000   0.00000   0.00000   0.03087
           D4           0.00000   0.00000   0.00000   0.00000   0.03087
 ITU=  1  1  0
 Use linear search instead of GDIIS.
     Eigenvalues ---    0.03087   0.03087   0.03087   0.14864   0.16000
     Eigenvalues ---    0.16000   0.16000   0.35046   0.35131   0.35131
     Eigenvalues ---    0.35131   0.63970
 RFO step:  Lambda=-1.14379906D-07 EMin= 3.08730960D-02
 Quartic linear search produced a step of  0.01099.
 Iteration  1 RMS(Cart)=  0.00022178 RMS(Int)=  0.00000003
 Iteration  2 RMS(Cart)=  0.00000003 RMS(Int)=  0.00000000
 Variable       Old X    -DE/DX   Delta X   Delta X   Delta X     New X
                                 (Linear)    (Quad)   (Total)
    R1        2.58442   0.00011  -0.00008   0.00025   0.00016   2.58458
    R2        2.06762  -0.00001   0.00000  -0.00003  -0.00003   2.06759
    R3        2.06762  -0.00001   0.00000  -0.00003  -0.00003   2.06759
    R4        2.06762  -0.00001   0.00000  -0.00003  -0.00003   2.06759
    R5        2.06762  -0.00001   0.00000  -0.00003  -0.00003   2.06759
    A1        2.12255  -0.00004  -0.00004  -0.00020  -0.00024   2.12231
    A2        2.12255  -0.00004  -0.00004  -0.00020  -0.00024   2.12231
    A3        2.03808   0.00007   0.00007   0.00041   0.00048   2.03856
    A4        2.12255  -0.00004  -0.00004  -0.00020  -0.00024   2.12231
    A5        2.12255  -0.00004  -0.00004  -0.00020  -0.00024   2.12231
    A6        2.03808   0.00007   0.00007   0.00041   0.00048   2.03856
    D1        0.00000   0.00000   0.00000   0.00000   0.00000   0.00000
    D2        3.14159   0.00000   0.00000   0.00000   0.00000  -3.14159
    D3       -3.14159   0.00000   0.00000   0.00000   0.00000   3.14159
    D4        0.00000   0.00000   0.00000   0.00000   0.00000   0.00000
         Item               Value     Threshold  Converged?
 Maximum Force            0.000107     0.000450     YES
 RMS     Force            0.000043     0.000300     YES
 Maximum Displacement     0.000353     0.001800     YES
 RMS     Displacement     0.000222     0.001200     YES
 Predicted change in Energy=-6.073422D-08
 Optimization completed.
    -- Stationary point found.
                           ----------------------------
                           !   Optimized Parameters   !
                           ! (Angstroms and Degrees)  !
 --------------------------                            --------------------------
 ! Name  Definition              Value          Derivative Info.                !
 --------------------------------------------------------------------------------
 ! R1    R(1,2)                  1.3676         -DE/DX =    0.0001              !
 ! R2    R(1,3)                  1.0941         -DE/DX =    0.0                 !
 ! R3    R(1,4)                  1.0941         -DE/DX =    0.0                 !
 ! R4    R(2,5)                  1.0941         -DE/DX =    0.0                 !
 ! R5    R(2,6)                  1.0941         -DE/DX =    0.0                 !
 ! A1    A(2,1,3)              121.6132         -DE/DX =    0.0                 !
 ! A2    A(2,1,4)              121.6132         -DE/DX =    0.0                 !
 ! A3    A(3,1,4)              116.7735         -DE/DX =    0.0001              !
 ! A4    A(1,2,5)              121.6132         -DE/DX =    0.0                 !
 ! A5    A(1,2,6)              121.6132         -DE/DX =    0.0                 !
 ! A6    A(5,2,6)              116.7735         -DE/DX =    0.0001              !
 ! D1    D(3,1,2,5)              0.0001         -DE/DX =    0.0                 !
 ! D2    D(3,1,2,6)           -180.0001         -DE/DX =    0.0                 !
 ! D3    D(4,1,2,5)            180.0002         -DE/DX =    0.0                 !
 ! D4    D(4,1,2,6)              0.0            -DE/DX =    0.0                 !
 --------------------------------------------------------------------------------
 GradGradGradGradGradGradGradGradGradGradGradGradGradGradGradGradGradGrad

                          Input orientation:                          
 ---------------------------------------------------------------------
 Center     Atomic      Atomic             Coordinates (Angstroms)
 Number     Number       Type             X           Y           Z
 ---------------------------------------------------------------------
      1          6           0       -7.672149    3.043160    0.000001
      2          6           0       -6.309801    2.923232   -0.000001
      3          1           0       -8.243434    3.093825   -0.931770
      4          1           0       -8.243498    3.093080    0.931773
      5          1           0       -5.738452    2.873314   -0.931773
      6          1           0       -5.738516    2.872568    0.931770
 ---------------------------------------------------------------------
                    Distance matrix (angstroms):
                    1          2          3          4          5
     1  C    0.000000
     2  C    1.367617   0.000000
     3  H    1.094135   2.153192   0.000000
     4  H    1.094135   2.153192   1.863543   0.000000
     5  H    2.153192   1.094135   2.514669   3.129913   0.000000
     6  H    2.153192   1.094135   3.129913   2.514670   1.863543
                    6
     6  H    0.000000
 Stoichiometry    C2H4
 Framework group  C1[X(C2H4)]
 Deg. of freedom    12
 Full point group                 C1      NOp   1
 Largest Abelian subgroup         C1      NOp   1
 Largest concise Abelian subgroup C1      NOp   1
                         Standard orientation:                         
 ---------------------------------------------------------------------
 Center     Atomic      Atomic             Coordinates (Angstroms)
 Number     Number       Type             X           Y           Z
 ---------------------------------------------------------------------
      1          6           0       -0.683808    0.000000    0.000000
      2          6           0        0.683808    0.000000    0.000000
      3          1           0       -1.257335    0.931772    0.000000
      4          1           0       -1.257335   -0.931772    0.000001
      5          1           0        1.257335    0.931772    0.000001
      6          1           0        1.257335   -0.931772    0.000001
 ---------------------------------------------------------------------
 Rotational constants (GHZ):    144.3953099     28.7223947     23.9569898

 **********************************************************************

            Population analysis using the SCF density.

 **********************************************************************

 Orbital symmetries:
       Occupied  (A) (A) (A) (A) (A) (A) (A) (A)
       Virtual   (A) (A) (A) (A) (A) (A) (A) (A) (A) (A) (A) (A)
                 (A) (A) (A) (A) (A) (A)
 The electronic state is 1-A.
 Alpha  occ. eigenvalues --  -11.24852 -11.24713  -1.02824  -0.79334  -0.63949
 Alpha  occ. eigenvalues --   -0.58250  -0.50606  -0.36958
 Alpha virt. eigenvalues --    0.13928   0.25938   0.28732   0.36006   0.39511
 Alpha virt. eigenvalues --    0.41652   0.44422   0.48041   0.49350   0.60840
 Alpha virt. eigenvalues --    0.67157   0.79064   0.86172   1.21868   1.31399
 Alpha virt. eigenvalues --    1.38355   1.45683   1.65747
          Condensed to atoms (all electrons):
               1          2          3          4          5          6
     1  C    5.077338   0.570791   0.396058   0.396058  -0.041150  -0.041150
     2  C    0.570791   5.077337  -0.041150  -0.041150   0.396058   0.396058
     3  H    0.396058  -0.041150   0.490675  -0.023389  -0.002980   0.001813
     4  H    0.396058  -0.041150  -0.023389   0.490675   0.001813  -0.002980
     5  H   -0.041150   0.396058  -0.002980   0.001813   0.490675  -0.023389
     6  H   -0.041150   0.396058   0.001813  -0.002980  -0.023389   0.490675
 Mulliken charges:
               1
     1  C   -0.357944
     2  C   -0.357944
     3  H    0.178972
     4  H    0.178972
     5  H    0.178972
     6  H    0.178972
 Sum of Mulliken charges =   0.00000
 Mulliken charges with hydrogens summed into heavy atoms:
               1
     1  C    0.000000
     2  C    0.000000
 Electronic spatial extent (au):  <R**2>=             85.3943
 Charge=              0.0000 electrons
 Dipole moment (field-independent basis, Debye):
    X=              0.0000    Y=              0.0000    Z=              0.0000  Tot=              0.0000
 Quadrupole moment (field-independent basis, Debye-Ang):
   XX=            -12.0922   YY=            -12.3457   ZZ=            -16.4150
   XY=              0.0000   XZ=              0.0000   YZ=              0.0000
 Traceless Quadrupole moment (field-independent basis, Debye-Ang):
   XX=              1.5254   YY=              1.2719   ZZ=             -2.7974
   XY=              0.0000   XZ=              0.0000   YZ=              0.0000
 Octapole moment (field-independent basis, Debye-Ang**2):
  XXX=              0.0000  YYY=              0.0000  ZZZ=              0.0000  XYY=              0.0000
  XXY=              0.0000  XXZ=              0.0000  XZZ=              0.0000  YZZ=              0.0000
  YYZ=              0.0000  XYZ=              0.0000
 Hexadecapole moment (field-independent basis, Debye-Ang**3):
 XXXX=            -68.7096 YYYY=            -26.3178 ZZZZ=            -20.6362 XXXY=              0.0000
 XXXZ=              0.0000 YYYX=              0.0000 YYYZ=              0.0000 ZZZX=              0.0000
 ZZZY=              0.0000 XXYY=            -13.0240 XXZZ=            -16.3054 YYZZ=             -8.4863
 XXYZ=              0.0000 YYXZ=              0.0000 ZZXY=              0.0000
 N-N= 3.276247449904D+01 E-N=-2.465845943857D+02  KE= 7.787060818057D+01
 1\1\GINC-N0288\FOpt\RMP2-FC\LANL2DZ\C2H4\GDAVIDS3\21-Feb-2017\0\\#n MP
 2/LANL2DZ Opt\\Ethene MP2 LANL2DZ\\0,1\C,-7.6721491177,3.0431596265,0.
 0000006575\C,-6.3098009548,2.9232324801,-0.000000645\H,-8.2434343789,3
 .0938252139,-0.9317703445\H,-8.2434980599,3.0930803446,0.9317727565\H,
 -5.7384518691,2.8733143788,-0.9317727885\H,-5.7385156204,2.8725679486,
 0.9317703639\\Version=ES64L-G09RevE.01\State=1-A\HF=-78.0093724\MP2=-7
 8.1826469\RMSD=2.070e-09\RMSF=7.297e-05\Dipole=0.0000001,0.0000012,0.\
 PG=C01 [X(C2H4)]\\@


 WE STILL HAVE JUDGEMENT HERE,
 THAT WE TEACH BUT BLOODY INSTRUCTIONS,
 WHICH, BEING TAUGHT,
 RETURN TO PLAGUE THE INVENTOR.
           MACBETH ACT I, SCENE VII
 Job cpu time:       0 days  0 hours  0 minutes 25.8 seconds.
 File lengths (MBytes):  RWF=      5 Int=      0 D2E=      0 Chk=      1 Scr=      1
 Normal termination of Gaussian 09 at Tue Feb 21 18:34:25 2017.
