 Entering Gaussian System, Link 0=g09
 Input=Ethene_MP2_6-31Gdp.com
 Output=Ethene_MP2_6-31Gdp.log
 Initial command:
 /sw/contrib/gaussian/g09/E01/g09/l1.exe "/scr/Gau-28665.inp" -scrdir="/scr/"
 Entering Link 1 = /sw/contrib/gaussian/g09/E01/g09/l1.exe PID=     28666.
  
 Copyright (c) 1988,1990,1992,1993,1995,1998,2003,2009,2015,
            Gaussian, Inc.  All Rights Reserved.
  
 This is part of the Gaussian(R) 09 program.  It is based on
 the Gaussian(R) 03 system (copyright 2003, Gaussian, Inc.),
 the Gaussian(R) 98 system (copyright 1998, Gaussian, Inc.),
 the Gaussian(R) 94 system (copyright 1995, Gaussian, Inc.),
 the Gaussian 92(TM) system (copyright 1992, Gaussian, Inc.),
 the Gaussian 90(TM) system (copyright 1990, Gaussian, Inc.),
 the Gaussian 88(TM) system (copyright 1988, Gaussian, Inc.),
 the Gaussian 86(TM) system (copyright 1986, Carnegie Mellon
 University), and the Gaussian 82(TM) system (copyright 1983,
 Carnegie Mellon University). Gaussian is a federally registered
 trademark of Gaussian, Inc.
  
 This software contains proprietary and confidential information,
 including trade secrets, belonging to Gaussian, Inc.
  
 This software is provided under written license and may be
 used, copied, transmitted, or stored only in accord with that
 written license.
  
 The following legend is applicable only to US Government
 contracts under FAR:
  
                    RESTRICTED RIGHTS LEGEND
  
 Use, reproduction and disclosure by the US Government is
 subject to restrictions as set forth in subparagraphs (a)
 and (c) of the Commercial Computer Software - Restricted
 Rights clause in FAR 52.227-19.
  
 Gaussian, Inc.
 340 Quinnipiac St., Bldg. 40, Wallingford CT 06492
  
  
 ---------------------------------------------------------------
 Warning -- This program may not be used in any manner that
 competes with the business of Gaussian, Inc. or will provide
 assistance to any competitor of Gaussian, Inc.  The licensee
 of this program is prohibited from giving any competitor of
 Gaussian, Inc. access to this program.  By using this program,
 the user acknowledges that Gaussian, Inc. is engaged in the
 business of creating and licensing software in the field of
 computational chemistry and represents and warrants to the
 licensee that it is not a competitor of Gaussian, Inc. and that
 it will not use this program in any manner prohibited above.
 ---------------------------------------------------------------
  

 Cite this work as:
 Gaussian 09, Revision E.01,
 M. J. Frisch, G. W. Trucks, H. B. Schlegel, G. E. Scuseria, 
 M. A. Robb, J. R. Cheeseman, G. Scalmani, V. Barone, B. Mennucci, 
 G. A. Petersson, H. Nakatsuji, M. Caricato, X. Li, H. P. Hratchian, 
 A. F. Izmaylov, J. Bloino, G. Zheng, J. L. Sonnenberg, M. Hada, 
 M. Ehara, K. Toyota, R. Fukuda, J. Hasegawa, M. Ishida, T. Nakajima, 
 Y. Honda, O. Kitao, H. Nakai, T. Vreven, J. A. Montgomery, Jr., 
 J. E. Peralta, F. Ogliaro, M. Bearpark, J. J. Heyd, E. Brothers, 
 K. N. Kudin, V. N. Staroverov, T. Keith, R. Kobayashi, J. Normand, 
 K. Raghavachari, A. Rendell, J. C. Burant, S. S. Iyengar, J. Tomasi, 
 M. Cossi, N. Rega, J. M. Millam, M. Klene, J. E. Knox, J. B. Cross, 
 V. Bakken, C. Adamo, J. Jaramillo, R. Gomperts, R. E. Stratmann, 
 O. Yazyev, A. J. Austin, R. Cammi, C. Pomelli, J. W. Ochterski, 
 R. L. Martin, K. Morokuma, V. G. Zakrzewski, G. A. Voth, 
 P. Salvador, J. J. Dannenberg, S. Dapprich, A. D. Daniels, 
 O. Farkas, J. B. Foresman, J. V. Ortiz, J. Cioslowski, 
 and D. J. Fox, Gaussian, Inc., Wallingford CT, 2013.
 
 ******************************************
 Gaussian 09:  ES64L-G09RevE.01 30-Nov-2015
                21-Feb-2017 
 ******************************************
 %NProcShared=8
 Will use up to    8 processors via shared memory.
 ---------------------
 #n MP2/6-31G(d,p) Opt
 ---------------------
 1/18=20,19=15,38=1/1,3;
 2/9=110,12=2,17=6,18=5,40=1/2;
 3/5=1,6=6,7=101,11=9,16=1,25=1,30=1,71=1/1,2,3;
 4//1;
 5/5=2,38=5/2;
 8/6=4,10=2/1;
 9/15=2,16=-3/6;
 10/5=1/2;
 6/7=2,8=2,9=2,10=2/1;
 7/12=2/1,2,3,16;
 1/18=20,19=15/3(2);
 2/9=110/2;
 99//99;
 2/9=110/2;
 3/5=1,6=6,7=101,11=9,16=1,25=1,30=1,71=1/1,2,3;
 4/5=5,16=3,69=1/1;
 5/5=2,38=5/2;
 8/6=4,10=2/1;
 9/15=2,16=-3/6;
 10/5=1/2;
 7/12=2/1,2,3,16;
 1/18=20,19=15/3(-8);
 2/9=110/2;
 6/7=2,8=2,9=2,10=2/1;
 99//99;
 ------------------
 Ethene MP2 6-31Gdp
 ------------------
 Symbolic Z-matrix:
 Charge =  0 Multiplicity = 1
 C                    -7.65068   3.04127   0. 
 C                    -6.33127   2.92512   0. 
 H                    -8.2108    3.09095  -0.93056 
 H                    -8.21086   3.09021   0.93056 
 H                    -5.77109   2.87619  -0.93056 
 H                    -5.77115   2.87544   0.93056 
 

 GradGradGradGradGradGradGradGradGradGradGradGradGradGradGradGradGradGrad
 Berny optimization.
 Initialization pass.
                           ----------------------------
                           !    Initial Parameters    !
                           ! (Angstroms and Degrees)  !
 --------------------------                            --------------------------
 ! Name  Definition              Value          Derivative Info.                !
 --------------------------------------------------------------------------------
 ! R1    R(1,2)                  1.3245         estimate D2E/DX2                !
 ! R2    R(1,3)                  1.0873         estimate D2E/DX2                !
 ! R3    R(1,4)                  1.0873         estimate D2E/DX2                !
 ! R4    R(2,5)                  1.0873         estimate D2E/DX2                !
 ! R5    R(2,6)                  1.0873         estimate D2E/DX2                !
 ! A1    A(2,1,3)              121.1437         estimate D2E/DX2                !
 ! A2    A(2,1,4)              121.1435         estimate D2E/DX2                !
 ! A3    A(3,1,4)              117.7128         estimate D2E/DX2                !
 ! A4    A(1,2,5)              121.1435         estimate D2E/DX2                !
 ! A5    A(1,2,6)              121.1437         estimate D2E/DX2                !
 ! A6    A(5,2,6)              117.7128         estimate D2E/DX2                !
 ! D1    D(3,1,2,5)              0.0007         estimate D2E/DX2                !
 ! D2    D(3,1,2,6)            180.0            estimate D2E/DX2                !
 ! D3    D(4,1,2,5)           -179.9994         estimate D2E/DX2                !
 ! D4    D(4,1,2,6)             -0.0001         estimate D2E/DX2                !
 --------------------------------------------------------------------------------
 Trust Radius=3.00D-01 FncErr=1.00D-07 GrdErr=1.00D-07
 Number of steps in this run=     25 maximum allowed number of steps=    100.
 GradGradGradGradGradGradGradGradGradGradGradGradGradGradGradGradGradGrad

                          Input orientation:                          
 ---------------------------------------------------------------------
 Center     Atomic      Atomic             Coordinates (Angstroms)
 Number     Number       Type             X           Y           Z
 ---------------------------------------------------------------------
      1          6           0       -7.650680    3.041270    0.000000
      2          6           0       -6.331270    2.925120    0.000000
      3          1           0       -8.210800    3.090950   -0.930560
      4          1           0       -8.210860    3.090210    0.930560
      5          1           0       -5.771090    2.876190   -0.930560
      6          1           0       -5.771150    2.875440    0.930560
 ---------------------------------------------------------------------
                    Distance matrix (angstroms):
                    1          2          3          4          5
     1  C    0.000000
     2  C    1.324513   0.000000
     3  H    1.087265   2.103824   0.000000
     4  H    1.087262   2.103819   1.861120   0.000000
     5  H    2.103818   1.087262   2.449144   3.076045   0.000000
     6  H    2.103824   1.087265   3.076053   2.449145   1.861120
                    6
     6  H    0.000000
 Stoichiometry    C2H4
 Framework group  C1[X(C2H4)]
 Deg. of freedom    12
 Full point group                 C1      NOp   1
 Largest Abelian subgroup         C1      NOp   1
 Largest concise Abelian subgroup C1      NOp   1
                         Standard orientation:                         
 ---------------------------------------------------------------------
 Center     Atomic      Atomic             Coordinates (Angstroms)
 Number     Number       Type             X           Y           Z
 ---------------------------------------------------------------------
      1          6           0       -0.662256   -0.000001    0.000000
      2          6           0        0.662256    0.000001   -0.000002
      3          1           0       -1.224576    0.930558   -0.000002
      4          1           0       -1.224569   -0.930562    0.000003
      5          1           0        1.224568    0.930562    0.000006
      6          1           0        1.224576   -0.930558    0.000001
 ---------------------------------------------------------------------
 Rotational constants (GHZ):    144.7715521     30.4973425     25.1907084
 Standard basis: 6-31G(d,p) (6D, 7F)
 There are    50 symmetry adapted cartesian basis functions of A   symmetry.
 There are    50 symmetry adapted basis functions of A   symmetry.
    50 basis functions,    84 primitive gaussians,    50 cartesian basis functions
     8 alpha electrons        8 beta electrons
       nuclear repulsion energy        33.4454879269 Hartrees.
 NAtoms=    6 NActive=    6 NUniq=    6 SFac= 1.00D+00 NAtFMM=   60 NAOKFM=F Big=F
 Integral buffers will be    131072 words long.
 Raffenetti 1 integral format.
 Two-electron integral symmetry is turned on.
 One-electron integrals computed using PRISM.
 NBasis=    50 RedAO= T EigKep=  6.75D-03  NBF=    50
 NBsUse=    50 1.00D-06 EigRej= -1.00D+00 NBFU=    50
 ExpMin= 1.61D-01 ExpMax= 3.05D+03 ExpMxC= 4.57D+02 IAcc=1 IRadAn=         1 AccDes= 0.00D+00
 Harris functional with IExCor=  205 and IRadAn=       1 diagonalized for initial guess.
 HarFok:  IExCor=  205 AccDes= 0.00D+00 IRadAn=         1 IDoV= 1 UseB2=F ITyADJ=14
 ICtDFT=  3500011 ScaDFX=  1.000000  1.000000  1.000000  1.000000
 FoFCou: FMM=F IPFlag=           0 FMFlag=      100000 FMFlg1=           0
         NFxFlg=           0 DoJE=T BraDBF=F KetDBF=T FulRan=T
         wScrn=  0.000000 ICntrl=     500 IOpCl=  0 I1Cent=   200000004 NGrid=           0
         NMat0=    1 NMatS0=      1 NMatT0=    0 NMatD0=    1 NMtDS0=    0 NMtDT0=    0
 Petite list used in FoFCou.
 Keep R1 ints in memory in canonical form, NReq=1679714.
 Requested convergence on RMS density matrix=1.00D-08 within 128 cycles.
 Requested convergence on MAX density matrix=1.00D-06.
 Requested convergence on             energy=1.00D-06.
 No special actions if energy rises.
 SCF Done:  E(RHF) =  -78.0383400595     A.U. after    9 cycles
            NFock=  9  Conv=0.22D-08     -V/T= 2.0018
 ExpMin= 1.61D-01 ExpMax= 3.05D+03 ExpMxC= 4.57D+02 IAcc=3 IRadAn=         5 AccDes= 0.00D+00
 HarFok:  IExCor=  205 AccDes= 0.00D+00 IRadAn=         5 IDoV=-2 UseB2=F ITyADJ=14
 ICtDFT= 12500011 ScaDFX=  1.000000  1.000000  1.000000  1.000000
 Range of M.O.s used for correlation:     3    50
 NBasis=    50 NAE=     8 NBE=     8 NFC=     2 NFV=     0
 NROrb=     48 NOA=     6 NOB=     6 NVA=    42 NVB=    42
 Fully direct method using O(ONN) memory.
 JobTyp=1 Pass  1:  I=   3 to   8 NPSUse=  2 ParTrn=F ParDer=T DoDerP=T.
 Spin components of T(2) and E(2):
     alpha-alpha T2 =       0.1037003562D-01 E2=     -0.2983011372D-01
     alpha-beta  T2 =       0.7572719788D-01 E2=     -0.2189673998D+00
     beta-beta   T2 =       0.1037003562D-01 E2=     -0.2983011372D-01
 ANorm=    0.1047123330D+01
 E2 =    -0.2786276272D+00 EUMP2 =    -0.78316967686750D+02
          IDoAtm=111111
          Differentiating once with respect to electric field.
                with respect to dipole field.
          Differentiating once with respect to nuclear coordinates.
 Keep R1 ints in memory in canonical form, NReq=1662452.
          There are     1 degrees of freedom in the 1st order CPHF.  IDoFFX=0 NUNeed=     1.
 LinEq1:  Iter=  0 NonCon=     1 RMS=5.78D-03 Max=8.00D-02 NDo=     1
 AX will form     1 AO Fock derivatives at one time.
 LinEq1:  Iter=  1 NonCon=     1 RMS=1.68D-03 Max=1.53D-02 NDo=     1
 LinEq1:  Iter=  2 NonCon=     1 RMS=2.67D-04 Max=2.79D-03 NDo=     1
 LinEq1:  Iter=  3 NonCon=     1 RMS=3.97D-05 Max=2.48D-04 NDo=     1
 LinEq1:  Iter=  4 NonCon=     1 RMS=3.83D-06 Max=2.94D-05 NDo=     1
 LinEq1:  Iter=  5 NonCon=     1 RMS=2.96D-07 Max=2.09D-06 NDo=     1
 LinEq1:  Iter=  6 NonCon=     1 RMS=2.29D-08 Max=1.38D-07 NDo=     1
 LinEq1:  Iter=  7 NonCon=     1 RMS=1.59D-09 Max=9.02D-09 NDo=     1
 LinEq1:  Iter=  8 NonCon=     0 RMS=9.15D-11 Max=5.41D-10 NDo=     1
 Linear equations converged to 1.000D-10 1.000D-09 after     8 iterations.
 End of Minotr F.D. properties file   721 does not exist.
 End of Minotr F.D. properties file   722 does not exist.
 End of Minotr F.D. properties file   788 does not exist.

 **********************************************************************

            Population analysis using the SCF density.

 **********************************************************************

 Orbital symmetries:
       Occupied  (A) (A) (A) (A) (A) (A) (A) (A)
       Virtual   (A) (A) (A) (A) (A) (A) (A) (A) (A) (A) (A) (A)
                 (A) (A) (A) (A) (A) (A) (A) (A) (A) (A) (A) (A)
                 (A) (A) (A) (A) (A) (A) (A) (A) (A) (A) (A) (A)
                 (A) (A) (A) (A) (A) (A)
 The electronic state is 1-A.
 Alpha  occ. eigenvalues --  -11.22820 -11.22647  -1.02985  -0.78364  -0.63776
 Alpha  occ. eigenvalues --   -0.57946  -0.49970  -0.37284
 Alpha virt. eigenvalues --    0.18108   0.26261   0.29047   0.30834   0.39018
 Alpha virt. eigenvalues --    0.49147   0.65798   0.76991   0.77361   0.84996
 Alpha virt. eigenvalues --    0.89143   0.96193   1.07888   1.11748   1.16846
 Alpha virt. eigenvalues --    1.17725   1.33615   1.46198   1.64853   1.66925
 Alpha virt. eigenvalues --    1.80920   2.13727   2.19331   2.27153   2.32468
 Alpha virt. eigenvalues --    2.35477   2.44496   2.53142   2.67322   2.76708
 Alpha virt. eigenvalues --    2.84927   2.94493   3.01669   3.03439   3.08016
 Alpha virt. eigenvalues --    3.35295   3.53021   3.71163   3.86372   4.14023
 Alpha virt. eigenvalues --    4.60163   4.91627
          Condensed to atoms (all electrons):
               1          2          3          4          5          6
     1  C    4.880754   0.639931   0.408374   0.408374  -0.040882  -0.040882
     2  C    0.639931   4.880754  -0.040882  -0.040882   0.408374   0.408374
     3  H    0.408374  -0.040882   0.535912  -0.029919  -0.004540   0.003221
     4  H    0.408374  -0.040882  -0.029919   0.535912   0.003221  -0.004540
     5  H   -0.040882   0.408374  -0.004540   0.003221   0.535912  -0.029919
     6  H   -0.040882   0.408374   0.003221  -0.004540  -0.029919   0.535912
 Mulliken charges:
               1
     1  C   -0.255668
     2  C   -0.255668
     3  H    0.127834
     4  H    0.127834
     5  H    0.127834
     6  H    0.127834
 Sum of Mulliken charges =   0.00000
 Mulliken charges with hydrogens summed into heavy atoms:
               1
     1  C    0.000000
     2  C    0.000000
 Electronic spatial extent (au):  <R**2>=             82.1043
 Charge=              0.0000 electrons
 Dipole moment (field-independent basis, Debye):
    X=              0.0000    Y=              0.0000    Z=              0.0000  Tot=              0.0000
 Quadrupole moment (field-independent basis, Debye-Ang):
   XX=            -12.1177   YY=            -12.1622   ZZ=            -15.4256
   XY=              0.0000   XZ=              0.0000   YZ=              0.0000
 Traceless Quadrupole moment (field-independent basis, Debye-Ang):
   XX=              1.1175   YY=              1.0730   ZZ=             -2.1905
   XY=              0.0000   XZ=              0.0000   YZ=              0.0000
 Octapole moment (field-independent basis, Debye-Ang**2):
  XXX=              0.0000  YYY=              0.0000  ZZZ=              0.0000  XYY=              0.0000
  XXY=              0.0000  XXZ=              0.0000  XZZ=              0.0000  YZZ=              0.0000
  YYZ=              0.0000  XYZ=              0.0000
 Hexadecapole moment (field-independent basis, Debye-Ang**3):
 XXXX=            -66.4737 YYYY=            -26.2113 ZZZZ=            -16.5013 XXXY=             -0.0001
 XXXZ=              0.0000 YYYX=              0.0000 YYYZ=              0.0000 ZZZX=              0.0000
 ZZZY=              0.0000 XXYY=            -12.8473 XXZZ=            -14.7734 YYZZ=             -7.8268
 XXYZ=              0.0000 YYXZ=              0.0000 ZZXY=              0.0000
 N-N= 3.344548792691D+01 E-N=-2.481474214553D+02  KE= 7.789558254548D+01
 Calling FoFJK, ICntrl=  10002127 FMM=F ISym2X=0 I1Cent= 0 IOpClX= 0 NMat=1 NMatS=1 NMatT=0.
 ***** Axes restored to original set *****
 -------------------------------------------------------------------
 Center     Atomic                   Forces (Hartrees/Bohr)
 Number     Number              X              Y              Z
 -------------------------------------------------------------------
      1        6          -0.016145924    0.001421121   -0.000000821
      2        6           0.016145738   -0.001420467    0.000001073
      3        1           0.000966477   -0.000086858    0.004947712
      4        1           0.000965445   -0.000083228   -0.004946247
      5        1          -0.000965289    0.000082446    0.004946021
      6        1          -0.000966447    0.000086986   -0.004947737
 -------------------------------------------------------------------
 Cartesian Forces:  Max     0.016145924 RMS     0.005902270

 GradGradGradGradGradGradGradGradGradGradGradGradGradGradGradGradGradGrad
 Berny optimization.
 FormGI is forming the generalized inverse of G from B-inverse, IUseBI=4.
 Internal  Forces:  Max     0.014268950 RMS     0.004546931
 Search for a local minimum.
 Step number   1 out of a maximum of   25
 All quantities printed in internal units (Hartrees-Bohrs-Radians)
 Mixed Optimization -- RFO/linear search
 Second derivative matrix not updated -- first step.
 The second derivative matrix:
                          R1        R2        R3        R4        R5
           R1           0.60821
           R2           0.00000   0.35131
           R3           0.00000   0.00000   0.35131
           R4           0.00000   0.00000   0.00000   0.35131
           R5           0.00000   0.00000   0.00000   0.00000   0.35131
           A1           0.00000   0.00000   0.00000   0.00000   0.00000
           A2           0.00000   0.00000   0.00000   0.00000   0.00000
           A3           0.00000   0.00000   0.00000   0.00000   0.00000
           A4           0.00000   0.00000   0.00000   0.00000   0.00000
           A5           0.00000   0.00000   0.00000   0.00000   0.00000
           A6           0.00000   0.00000   0.00000   0.00000   0.00000
           D1           0.00000   0.00000   0.00000   0.00000   0.00000
           D2           0.00000   0.00000   0.00000   0.00000   0.00000
           D3           0.00000   0.00000   0.00000   0.00000   0.00000
           D4           0.00000   0.00000   0.00000   0.00000   0.00000
                          A1        A2        A3        A4        A5
           A1           0.16000
           A2           0.00000   0.16000
           A3           0.00000   0.00000   0.16000
           A4           0.00000   0.00000   0.00000   0.16000
           A5           0.00000   0.00000   0.00000   0.00000   0.16000
           A6           0.00000   0.00000   0.00000   0.00000   0.00000
           D1           0.00000   0.00000   0.00000   0.00000   0.00000
           D2           0.00000   0.00000   0.00000   0.00000   0.00000
           D3           0.00000   0.00000   0.00000   0.00000   0.00000
           D4           0.00000   0.00000   0.00000   0.00000   0.00000
                          A6        D1        D2        D3        D4
           A6           0.16000
           D1           0.00000   0.03087
           D2           0.00000   0.00000   0.03087
           D3           0.00000   0.00000   0.00000   0.03087
           D4           0.00000   0.00000   0.00000   0.00000   0.03087
 ITU=  0
     Eigenvalues ---    0.03087   0.03087   0.03087   0.16000   0.16000
     Eigenvalues ---    0.16000   0.16000   0.35131   0.35131   0.35131
     Eigenvalues ---    0.35131   0.60821
 RFO step:  Lambda=-6.93857275D-04 EMin= 3.08730960D-02
 Linear search not attempted -- first point.
 Iteration  1 RMS(Cart)=  0.01419452 RMS(Int)=  0.00005151
 Iteration  2 RMS(Cart)=  0.00005277 RMS(Int)=  0.00000000
 Iteration  3 RMS(Cart)=  0.00000000 RMS(Int)=  0.00000000
 Variable       Old X    -DE/DX   Delta X   Delta X   Delta X     New X
                                 (Linear)    (Quad)   (Total)
    R1        2.50297   0.01427   0.00000   0.02343   0.02343   2.52640
    R2        2.05463  -0.00474   0.00000  -0.01346  -0.01346   2.04118
    R3        2.05463  -0.00473   0.00000  -0.01345  -0.01345   2.04118
    R4        2.05463  -0.00473   0.00000  -0.01345  -0.01345   2.04118
    R5        2.05463  -0.00474   0.00000  -0.01346  -0.01346   2.04118
    A1        2.11436   0.00118   0.00000   0.00736   0.00736   2.12172
    A2        2.11435   0.00118   0.00000   0.00737   0.00737   2.12172
    A3        2.05448  -0.00237   0.00000  -0.01473  -0.01473   2.03974
    A4        2.11435   0.00118   0.00000   0.00737   0.00737   2.12172
    A5        2.11436   0.00118   0.00000   0.00736   0.00736   2.12172
    A6        2.05448  -0.00237   0.00000  -0.01473  -0.01473   2.03974
    D1        0.00001   0.00000   0.00000  -0.00001  -0.00001   0.00000
    D2        3.14159   0.00000   0.00000   0.00000   0.00000  -3.14159
    D3       -3.14158   0.00000   0.00000  -0.00001  -0.00001   3.14159
    D4        0.00000   0.00000   0.00000   0.00000   0.00000   0.00000
         Item               Value     Threshold  Converged?
 Maximum Force            0.014269     0.000450     NO 
 RMS     Force            0.004547     0.000300     NO 
 Maximum Displacement     0.019341     0.001800     NO 
 RMS     Displacement     0.014165     0.001200     NO 
 Predicted change in Energy=-3.475976D-04
 GradGradGradGradGradGradGradGradGradGradGradGradGradGradGradGradGradGrad

                          Input orientation:                          
 ---------------------------------------------------------------------
 Center     Atomic      Atomic             Coordinates (Angstroms)
 Number     Number       Type             X           Y           Z
 ---------------------------------------------------------------------
      1          6           0       -7.656856    3.041815    0.000001
      2          6           0       -6.325093    2.924581   -0.000001
      3          1           0       -8.220076    3.091764   -0.920325
      4          1           0       -8.220140    3.091027    0.920328
      5          1           0       -5.761810    2.875364   -0.920328
      6          1           0       -5.761874    2.874628    0.920325
 ---------------------------------------------------------------------
                    Distance matrix (angstroms):
                    1          2          3          4          5
     1  C    0.000000
     2  C    1.336913   0.000000
     3  H    1.080144   2.113270   0.000000
     4  H    1.080144   2.113270   1.840653   0.000000
     5  H    2.113270   1.080144   2.467773   3.078621   0.000000
     6  H    2.113270   1.080144   3.078620   2.467773   1.840653
                    6
     6  H    0.000000
 Stoichiometry    C2H4
 Framework group  C1[X(C2H4)]
 Deg. of freedom    12
 Full point group                 C1      NOp   1
 Largest Abelian subgroup         C1      NOp   1
 Largest concise Abelian subgroup C1      NOp   1
                         Standard orientation:                         
 ---------------------------------------------------------------------
 Center     Atomic      Atomic             Coordinates (Angstroms)
 Number     Number       Type             X           Y           Z
 ---------------------------------------------------------------------
      1          6           0       -0.668457    0.000000    0.000000
      2          6           0        0.668457    0.000000    0.000000
      3          1           0       -1.233886    0.920327   -0.000001
      4          1           0       -1.233887   -0.920326   -0.000001
      5          1           0        1.233887    0.920326   -0.000001
      6          1           0        1.233886   -0.920327   -0.000001
 ---------------------------------------------------------------------
 Rotational constants (GHZ):    148.0090216     29.9722235     24.9248705
 Standard basis: 6-31G(d,p) (6D, 7F)
 There are    50 symmetry adapted cartesian basis functions of A   symmetry.
 There are    50 symmetry adapted basis functions of A   symmetry.
    50 basis functions,    84 primitive gaussians,    50 cartesian basis functions
     8 alpha electrons        8 beta electrons
       nuclear repulsion energy        33.3648460107 Hartrees.
 NAtoms=    6 NActive=    6 NUniq=    6 SFac= 1.00D+00 NAtFMM=   60 NAOKFM=F Big=F
 Integral buffers will be    131072 words long.
 Raffenetti 1 integral format.
 Two-electron integral symmetry is turned on.
 One-electron integrals computed using PRISM.
 NBasis=    50 RedAO= T EigKep=  7.07D-03  NBF=    50
 NBsUse=    50 1.00D-06 EigRej= -1.00D+00 NBFU=    50
 Initial guess from the checkpoint file:  "/scr/Gau-28666.chk"
 B after Tr=     0.000000    0.000000    0.000000
         Rot=    1.000000    0.000000    0.000000    0.000001 Ang=   0.00 deg.
 Keep R1 ints in memory in canonical form, NReq=1679770.
 Requested convergence on RMS density matrix=1.00D-08 within 128 cycles.
 Requested convergence on MAX density matrix=1.00D-06.
 Requested convergence on             energy=1.00D-06.
 No special actions if energy rises.
 SCF Done:  E(RHF) =  -78.0382640535     A.U. after    7 cycles
            NFock=  7  Conv=0.54D-08     -V/T= 2.0018
 ExpMin= 1.61D-01 ExpMax= 3.05D+03 ExpMxC= 4.57D+02 IAcc=3 IRadAn=         5 AccDes= 0.00D+00
 HarFok:  IExCor=  205 AccDes= 0.00D+00 IRadAn=         5 IDoV=-2 UseB2=F ITyADJ=14
 ICtDFT= 12500011 ScaDFX=  1.000000  1.000000  1.000000  1.000000
 Range of M.O.s used for correlation:     3    50
 NBasis=    50 NAE=     8 NBE=     8 NFC=     2 NFV=     0
 NROrb=     48 NOA=     6 NOB=     6 NVA=    42 NVB=    42
 Fully direct method using O(ONN) memory.
 JobTyp=1 Pass  1:  I=   3 to   8 NPSUse=  2 ParTrn=F ParDer=T DoDerP=T.
 Spin components of T(2) and E(2):
     alpha-alpha T2 =       0.1041493516D-01 E2=     -0.2986878830D-01
     alpha-beta  T2 =       0.7605519519D-01 E2=     -0.2192764359D+00
     beta-beta   T2 =       0.1041493516D-01 E2=     -0.2986878830D-01
 ANorm=    0.1047322809D+01
 E2 =    -0.2790140125D+00 EUMP2 =    -0.78317278065970D+02
          IDoAtm=111111
          Differentiating once with respect to electric field.
                with respect to dipole field.
          Differentiating once with respect to nuclear coordinates.
 Keep R1 ints in memory in canonical form, NReq=1662452.
          There are     1 degrees of freedom in the 1st order CPHF.  IDoFFX=0 NUNeed=     1.
 LinEq1:  Iter=  0 NonCon=     1 RMS=5.87D-03 Max=8.24D-02 NDo=     1
 AX will form     1 AO Fock derivatives at one time.
 LinEq1:  Iter=  1 NonCon=     1 RMS=1.69D-03 Max=1.54D-02 NDo=     1
 LinEq1:  Iter=  2 NonCon=     1 RMS=2.66D-04 Max=2.81D-03 NDo=     1
 LinEq1:  Iter=  3 NonCon=     1 RMS=3.99D-05 Max=2.52D-04 NDo=     1
 LinEq1:  Iter=  4 NonCon=     1 RMS=3.80D-06 Max=2.95D-05 NDo=     1
 LinEq1:  Iter=  5 NonCon=     1 RMS=2.90D-07 Max=1.94D-06 NDo=     1
 LinEq1:  Iter=  6 NonCon=     1 RMS=2.26D-08 Max=1.35D-07 NDo=     1
 LinEq1:  Iter=  7 NonCon=     1 RMS=1.57D-09 Max=9.29D-09 NDo=     1
 LinEq1:  Iter=  8 NonCon=     0 RMS=9.06D-11 Max=5.60D-10 NDo=     1
 Linear equations converged to 1.000D-10 1.000D-09 after     8 iterations.
 End of Minotr F.D. properties file   721 does not exist.
 End of Minotr F.D. properties file   722 does not exist.
 End of Minotr F.D. properties file   788 does not exist.
 Calling FoFJK, ICntrl=  10002127 FMM=F ISym2X=0 I1Cent= 0 IOpClX= 0 NMat=1 NMatS=1 NMatT=0.
 ***** Axes restored to original set *****
 -------------------------------------------------------------------
 Center     Atomic                   Forces (Hartrees/Bohr)
 Number     Number              X              Y              Z
 -------------------------------------------------------------------
      1        6           0.002267327   -0.000199737    0.000000098
      2        6          -0.002267387    0.000199397   -0.000000126
      3        1          -0.000140380    0.000012559   -0.000354394
      4        1          -0.000140216    0.000012299    0.000354205
      5        1           0.000140246   -0.000012089   -0.000354175
      6        1           0.000140410   -0.000012429    0.000354392
 -------------------------------------------------------------------
 Cartesian Forces:  Max     0.002267387 RMS     0.000779705

 GradGradGradGradGradGradGradGradGradGradGradGradGradGradGradGradGradGrad
 Berny optimization.
 Using GEDIIS/GDIIS optimizer.
 FormGI is forming the generalized inverse of G from B-inverse, IUseBI=4.
 Internal  Forces:  Max     0.001994413 RMS     0.000551712
 Search for a local minimum.
 Step number   2 out of a maximum of   25
 All quantities printed in internal units (Hartrees-Bohrs-Radians)
 Mixed Optimization -- En-DIIS/RFO-DIIS
 Update second derivatives using D2CorX and points    1    2
 DE= -3.10D-04 DEPred=-3.48D-04 R= 8.93D-01
 TightC=F SS=  1.41D+00  RLast= 4.39D-02 DXNew= 5.0454D-01 1.3160D-01
 Trust test= 8.93D-01 RLast= 4.39D-02 DXMaxT set to 3.00D-01
 The second derivative matrix:
                          R1        R2        R3        R4        R5
           R1           0.66074
           R2          -0.01143   0.35321
           R3          -0.01142   0.00191   0.35321
           R4          -0.01142   0.00191   0.00190   0.35321
           R5          -0.01143   0.00191   0.00191   0.00191   0.35321
           A1           0.00186  -0.00017  -0.00016  -0.00016  -0.00017
           A2           0.00187  -0.00017  -0.00017  -0.00017  -0.00017
           A3          -0.00373   0.00033   0.00033   0.00033   0.00033
           A4           0.00187  -0.00017  -0.00017  -0.00017  -0.00017
           A5           0.00186  -0.00017  -0.00016  -0.00016  -0.00017
           A6          -0.00373   0.00033   0.00033   0.00033   0.00033
           D1           0.00000   0.00000   0.00000   0.00000   0.00000
           D2           0.00000   0.00000   0.00000   0.00000   0.00000
           D3           0.00000   0.00000   0.00000   0.00000   0.00000
           D4           0.00000   0.00000   0.00000   0.00000   0.00000
                          A1        A2        A3        A4        A5
           A1           0.15997
           A2          -0.00003   0.15997
           A3           0.00007   0.00007   0.15987
           A4          -0.00003  -0.00003   0.00007   0.15997
           A5          -0.00003  -0.00003   0.00007  -0.00003   0.15997
           A6           0.00007   0.00007  -0.00013   0.00007   0.00007
           D1           0.00000   0.00000   0.00000   0.00000   0.00000
           D2           0.00000   0.00000   0.00000   0.00000   0.00000
           D3           0.00000   0.00000   0.00000   0.00000   0.00000
           D4           0.00000   0.00000   0.00000   0.00000   0.00000
                          A6        D1        D2        D3        D4
           A6           0.15987
           D1           0.00000   0.03087
           D2           0.00000   0.00000   0.03087
           D3           0.00000   0.00000   0.00000   0.03087
           D4           0.00000   0.00000   0.00000   0.00000   0.03087
 ITU=  1  0
 Use linear search instead of GDIIS.
     Eigenvalues ---    0.03087   0.03087   0.03087   0.15951   0.16000
     Eigenvalues ---    0.16000   0.16000   0.35131   0.35131   0.35131
     Eigenvalues ---    0.35721   0.66254
 RFO step:  Lambda=-8.38628760D-07 EMin= 3.08730960D-02
 Quartic linear search produced a step of -0.09343.
 Iteration  1 RMS(Cart)=  0.00106875 RMS(Int)=  0.00000011
 Iteration  2 RMS(Cart)=  0.00000013 RMS(Int)=  0.00000000
 Variable       Old X    -DE/DX   Delta X   Delta X   Delta X     New X
                                 (Linear)    (Quad)   (Total)
    R1        2.52640  -0.00199  -0.00219  -0.00076  -0.00295   2.52345
    R2        2.04118   0.00038   0.00126  -0.00029   0.00096   2.04214
    R3        2.04118   0.00038   0.00126  -0.00029   0.00096   2.04214
    R4        2.04118   0.00038   0.00126  -0.00029   0.00096   2.04214
    R5        2.04118   0.00038   0.00126  -0.00029   0.00096   2.04214
    A1        2.12172  -0.00004  -0.00069   0.00043  -0.00025   2.12147
    A2        2.12172  -0.00004  -0.00069   0.00043  -0.00025   2.12147
    A3        2.03974   0.00009   0.00138  -0.00087   0.00051   2.04025
    A4        2.12172  -0.00004  -0.00069   0.00043  -0.00025   2.12147
    A5        2.12172  -0.00004  -0.00069   0.00043  -0.00025   2.12147
    A6        2.03974   0.00009   0.00138  -0.00087   0.00051   2.04025
    D1        0.00000   0.00000   0.00000   0.00000   0.00000   0.00000
    D2       -3.14159   0.00000   0.00000   0.00000   0.00000   3.14159
    D3        3.14159   0.00000   0.00000   0.00000   0.00001  -3.14159
    D4        0.00000   0.00000   0.00000   0.00000   0.00000   0.00000
         Item               Value     Threshold  Converged?
 Maximum Force            0.001994     0.000450     NO 
 RMS     Force            0.000552     0.000300     NO 
 Maximum Displacement     0.001471     0.001800     YES
 RMS     Displacement     0.001069     0.001200     YES
 Predicted change in Energy=-3.714987D-06
 GradGradGradGradGradGradGradGradGradGradGradGradGradGradGradGradGradGrad

                          Input orientation:                          
 ---------------------------------------------------------------------
 Center     Atomic      Atomic             Coordinates (Angstroms)
 Number     Number       Type             X           Y           Z
 ---------------------------------------------------------------------
      1          6           0       -7.656078    3.041745    0.000001
      2          6           0       -6.325872    2.924648   -0.000001
      3          1           0       -8.219331    3.091699   -0.920903
      4          1           0       -8.219394    3.090962    0.920905
      5          1           0       -5.762556    2.875431   -0.920905
      6          1           0       -5.762619    2.874694    0.920903
 ---------------------------------------------------------------------
                    Distance matrix (angstroms):
                    1          2          3          4          5
     1  C    0.000000
     2  C    1.335350   0.000000
     3  H    1.080653   2.112144   0.000000
     4  H    1.080653   2.112144   1.841808   0.000000
     5  H    2.112144   1.080653   2.466275   3.078111   0.000000
     6  H    2.112144   1.080653   3.078111   2.466275   1.841808
                    6
     6  H    0.000000
 Stoichiometry    C2H4
 Framework group  C1[X(C2H4)]
 Deg. of freedom    12
 Full point group                 C1      NOp   1
 Largest Abelian subgroup         C1      NOp   1
 Largest concise Abelian subgroup C1      NOp   1
                         Standard orientation:                         
 ---------------------------------------------------------------------
 Center     Atomic      Atomic             Coordinates (Angstroms)
 Number     Number       Type             X           Y           Z
 ---------------------------------------------------------------------
      1          6           0       -0.667675    0.000000    0.000000
      2          6           0        0.667675    0.000000    0.000000
      3          1           0       -1.233137    0.920904    0.000000
      4          1           0       -1.233137   -0.920904    0.000000
      5          1           0        1.233137    0.920904    0.000000
      6          1           0        1.233137   -0.920904    0.000000
 ---------------------------------------------------------------------
 Rotational constants (GHZ):    147.8234770     30.0301220     24.9596132
 Standard basis: 6-31G(d,p) (6D, 7F)
 There are    50 symmetry adapted cartesian basis functions of A   symmetry.
 There are    50 symmetry adapted basis functions of A   symmetry.
    50 basis functions,    84 primitive gaussians,    50 cartesian basis functions
     8 alpha electrons        8 beta electrons
       nuclear repulsion energy        33.3791467738 Hartrees.
 NAtoms=    6 NActive=    6 NUniq=    6 SFac= 1.00D+00 NAtFMM=   60 NAOKFM=F Big=F
 Integral buffers will be    131072 words long.
 Raffenetti 1 integral format.
 Two-electron integral symmetry is turned on.
 One-electron integrals computed using PRISM.
 NBasis=    50 RedAO= T EigKep=  7.03D-03  NBF=    50
 NBsUse=    50 1.00D-06 EigRej= -1.00D+00 NBFU=    50
 Initial guess from the checkpoint file:  "/scr/Gau-28666.chk"
 B after Tr=     0.000000    0.000000    0.000000
         Rot=    1.000000    0.000000    0.000000    0.000000 Ang=   0.00 deg.
 Keep R1 ints in memory in canonical form, NReq=1679770.
 Requested convergence on RMS density matrix=1.00D-08 within 128 cycles.
 Requested convergence on MAX density matrix=1.00D-06.
 Requested convergence on             energy=1.00D-06.
 No special actions if energy rises.
 SCF Done:  E(RHF) =  -78.0383283981     A.U. after    7 cycles
            NFock=  7  Conv=0.57D-09     -V/T= 2.0018
 ExpMin= 1.61D-01 ExpMax= 3.05D+03 ExpMxC= 4.57D+02 IAcc=3 IRadAn=         5 AccDes= 0.00D+00
 HarFok:  IExCor=  205 AccDes= 0.00D+00 IRadAn=         5 IDoV=-2 UseB2=F ITyADJ=14
 ICtDFT= 12500011 ScaDFX=  1.000000  1.000000  1.000000  1.000000
 Range of M.O.s used for correlation:     3    50
 NBasis=    50 NAE=     8 NBE=     8 NFC=     2 NFV=     0
 NROrb=     48 NOA=     6 NOB=     6 NVA=    42 NVB=    42
 Fully direct method using O(ONN) memory.
 JobTyp=1 Pass  1:  I=   3 to   8 NPSUse=  2 ParTrn=F ParDer=T DoDerP=T.
 Spin components of T(2) and E(2):
     alpha-alpha T2 =       0.1040767256D-01 E2=     -0.2986339272D-01
     alpha-beta  T2 =       0.7599486433D-01 E2=     -0.2192267321D+00
     beta-beta   T2 =       0.1040767256D-01 E2=     -0.2986339272D-01
 ANorm=    0.1047287071D+01
 E2 =    -0.2789535175D+00 EUMP2 =    -0.78317281915666D+02
          IDoAtm=111111
          Differentiating once with respect to electric field.
                with respect to dipole field.
          Differentiating once with respect to nuclear coordinates.
 Keep R1 ints in memory in canonical form, NReq=1662452.
          There are     1 degrees of freedom in the 1st order CPHF.  IDoFFX=0 NUNeed=     1.
 LinEq1:  Iter=  0 NonCon=     1 RMS=5.85D-03 Max=8.21D-02 NDo=     1
 AX will form     1 AO Fock derivatives at one time.
 LinEq1:  Iter=  1 NonCon=     1 RMS=1.69D-03 Max=1.54D-02 NDo=     1
 LinEq1:  Iter=  2 NonCon=     1 RMS=2.66D-04 Max=2.81D-03 NDo=     1
 LinEq1:  Iter=  3 NonCon=     1 RMS=3.99D-05 Max=2.51D-04 NDo=     1
 LinEq1:  Iter=  4 NonCon=     1 RMS=3.80D-06 Max=2.94D-05 NDo=     1
 LinEq1:  Iter=  5 NonCon=     1 RMS=2.91D-07 Max=1.95D-06 NDo=     1
 LinEq1:  Iter=  6 NonCon=     1 RMS=2.26D-08 Max=1.35D-07 NDo=     1
 LinEq1:  Iter=  7 NonCon=     1 RMS=1.57D-09 Max=9.24D-09 NDo=     1
 LinEq1:  Iter=  8 NonCon=     0 RMS=9.03D-11 Max=5.58D-10 NDo=     1
 Linear equations converged to 1.000D-10 1.000D-09 after     8 iterations.
 End of Minotr F.D. properties file   721 does not exist.
 End of Minotr F.D. properties file   722 does not exist.
 End of Minotr F.D. properties file   788 does not exist.
 Calling FoFJK, ICntrl=  10002127 FMM=F ISym2X=0 I1Cent= 0 IOpClX= 0 NMat=1 NMatS=1 NMatT=0.
 ***** Axes restored to original set *****
 -------------------------------------------------------------------
 Center     Atomic                   Forces (Hartrees/Bohr)
 Number     Number              X              Y              Z
 -------------------------------------------------------------------
      1        6           0.000158547   -0.000013881   -0.000000002
      2        6          -0.000158550    0.000014036    0.000000005
      3        1          -0.000037886    0.000003295    0.000008144
      4        1          -0.000037889    0.000003299   -0.000008139
      5        1           0.000037893   -0.000003380    0.000008139
      6        1           0.000037885   -0.000003369   -0.000008147
 -------------------------------------------------------------------
 Cartesian Forces:  Max     0.000158550 RMS     0.000056133

 GradGradGradGradGradGradGradGradGradGradGradGradGradGradGradGradGradGrad
 Berny optimization.
 Using GEDIIS/GDIIS optimizer.
 FormGI is forming the generalized inverse of G from B-inverse, IUseBI=4.
 Internal  Forces:  Max     0.000083092 RMS     0.000031680
 Search for a local minimum.
 Step number   3 out of a maximum of   25
 All quantities printed in internal units (Hartrees-Bohrs-Radians)
 Mixed Optimization -- En-DIIS/RFO-DIIS
 Swapping is turned off.
 Update second derivatives using D2CorX and points    1    2    3
 DE= -3.85D-06 DEPred=-3.71D-06 R= 1.04D+00
 TightC=F SS=  1.41D+00  RLast= 3.63D-03 DXNew= 5.0454D-01 1.0900D-02
 Trust test= 1.04D+00 RLast= 3.63D-03 DXMaxT set to 3.00D-01
 The second derivative matrix:
                          R1        R2        R3        R4        R5
           R1           0.63122
           R2          -0.00595   0.35219
           R3          -0.00594   0.00088   0.35219
           R4          -0.00594   0.00088   0.00088   0.35219
           R5          -0.00595   0.00088   0.00088   0.00088   0.35219
           A1           0.00788  -0.00123  -0.00123  -0.00123  -0.00123
           A2           0.00788  -0.00123  -0.00123  -0.00123  -0.00123
           A3          -0.01576   0.00245   0.00245   0.00245   0.00245
           A4           0.00788  -0.00123  -0.00123  -0.00123  -0.00123
           A5           0.00788  -0.00123  -0.00123  -0.00123  -0.00123
           A6          -0.01576   0.00245   0.00245   0.00245   0.00245
           D1           0.00000   0.00000   0.00000   0.00000   0.00000
           D2           0.00002   0.00000   0.00000   0.00000   0.00000
           D3          -0.00002   0.00000   0.00000   0.00000   0.00000
           D4           0.00000   0.00000   0.00000   0.00000   0.00000
                          A1        A2        A3        A4        A5
           A1           0.16028
           A2           0.00028   0.16028
           A3          -0.00056  -0.00056   0.16112
           A4           0.00028   0.00028  -0.00056   0.16028
           A5           0.00028   0.00028  -0.00056   0.00028   0.16028
           A6          -0.00056  -0.00056   0.00112  -0.00056  -0.00056
           D1           0.00000   0.00000   0.00000   0.00000   0.00000
           D2           0.00000   0.00000   0.00000   0.00000   0.00000
           D3           0.00000   0.00000   0.00000   0.00000   0.00000
           D4           0.00000   0.00000   0.00000   0.00000   0.00000
                          A6        D1        D2        D3        D4
           A6           0.16112
           D1           0.00000   0.03087
           D2           0.00000   0.00000   0.03087
           D3           0.00000   0.00000   0.00000   0.03087
           D4           0.00000   0.00000   0.00000   0.00000   0.03087
 ITU=  1  1  0
     Eigenvalues ---    0.03087   0.03087   0.03087   0.16000   0.16000
     Eigenvalues ---    0.16000   0.16147   0.35131   0.35131   0.35131
     Eigenvalues ---    0.35460   0.63335
 En-DIIS/RFO-DIIS IScMMF=        0 using points:     3    2
 RFO step:  Lambda=-2.95036781D-08.
 DidBck=F Rises=F RFO-DIIS coefs:    1.03022   -0.03022
 Iteration  1 RMS(Cart)=  0.00013921 RMS(Int)=  0.00000001
 Iteration  2 RMS(Cart)=  0.00000001 RMS(Int)=  0.00000000
 Variable       Old X    -DE/DX   Delta X   Delta X   Delta X     New X
                                 (Linear)    (Quad)   (Total)
    R1        2.52345  -0.00008  -0.00009  -0.00007  -0.00015   2.52329
    R2        2.04214   0.00001   0.00003   0.00001   0.00004   2.04218
    R3        2.04214   0.00001   0.00003   0.00001   0.00004   2.04218
    R4        2.04214   0.00001   0.00003   0.00001   0.00004   2.04218
    R5        2.04214   0.00001   0.00003   0.00001   0.00004   2.04218
    A1        2.12147   0.00002  -0.00001   0.00017   0.00016   2.12163
    A2        2.12147   0.00002  -0.00001   0.00017   0.00016   2.12163
    A3        2.04025  -0.00005   0.00002  -0.00034  -0.00032   2.03993
    A4        2.12147   0.00002  -0.00001   0.00017   0.00016   2.12163
    A5        2.12147   0.00002  -0.00001   0.00017   0.00016   2.12163
    A6        2.04025  -0.00005   0.00002  -0.00034  -0.00032   2.03993
    D1        0.00000   0.00000   0.00000   0.00000   0.00000   0.00000
    D2        3.14159   0.00000   0.00000   0.00000   0.00000  -3.14159
    D3       -3.14159   0.00000   0.00000   0.00000   0.00000   3.14159
    D4        0.00000   0.00000   0.00000   0.00000   0.00000   0.00000
         Item               Value     Threshold  Converged?
 Maximum Force            0.000083     0.000450     YES
 RMS     Force            0.000032     0.000300     YES
 Maximum Displacement     0.000224     0.001800     YES
 RMS     Displacement     0.000139     0.001200     YES
 Predicted change in Energy=-3.164937D-08
 Optimization completed.
    -- Stationary point found.
                           ----------------------------
                           !   Optimized Parameters   !
                           ! (Angstroms and Degrees)  !
 --------------------------                            --------------------------
 ! Name  Definition              Value          Derivative Info.                !
 --------------------------------------------------------------------------------
 ! R1    R(1,2)                  1.3354         -DE/DX =   -0.0001              !
 ! R2    R(1,3)                  1.0807         -DE/DX =    0.0                 !
 ! R3    R(1,4)                  1.0807         -DE/DX =    0.0                 !
 ! R4    R(2,5)                  1.0807         -DE/DX =    0.0                 !
 ! R5    R(2,6)                  1.0807         -DE/DX =    0.0                 !
 ! A1    A(2,1,3)              121.5512         -DE/DX =    0.0                 !
 ! A2    A(2,1,4)              121.5512         -DE/DX =    0.0                 !
 ! A3    A(3,1,4)              116.8977         -DE/DX =    0.0                 !
 ! A4    A(1,2,5)              121.5512         -DE/DX =    0.0                 !
 ! A5    A(1,2,6)              121.5512         -DE/DX =    0.0                 !
 ! A6    A(5,2,6)              116.8977         -DE/DX =    0.0                 !
 ! D1    D(3,1,2,5)              0.0            -DE/DX =    0.0                 !
 ! D2    D(3,1,2,6)           -180.0001         -DE/DX =    0.0                 !
 ! D3    D(4,1,2,5)            180.0001         -DE/DX =    0.0                 !
 ! D4    D(4,1,2,6)              0.0            -DE/DX =    0.0                 !
 --------------------------------------------------------------------------------
 GradGradGradGradGradGradGradGradGradGradGradGradGradGradGradGradGradGrad

                          Input orientation:                          
 ---------------------------------------------------------------------
 Center     Atomic      Atomic             Coordinates (Angstroms)
 Number     Number       Type             X           Y           Z
 ---------------------------------------------------------------------
      1          6           0       -7.656078    3.041745    0.000001
      2          6           0       -6.325872    2.924648   -0.000001
      3          1           0       -8.219331    3.091699   -0.920903
      4          1           0       -8.219394    3.090962    0.920905
      5          1           0       -5.762556    2.875431   -0.920905
      6          1           0       -5.762619    2.874694    0.920903
 ---------------------------------------------------------------------
                    Distance matrix (angstroms):
                    1          2          3          4          5
     1  C    0.000000
     2  C    1.335350   0.000000
     3  H    1.080653   2.112144   0.000000
     4  H    1.080653   2.112144   1.841808   0.000000
     5  H    2.112144   1.080653   2.466275   3.078111   0.000000
     6  H    2.112144   1.080653   3.078111   2.466275   1.841808
                    6
     6  H    0.000000
 Stoichiometry    C2H4
 Framework group  C1[X(C2H4)]
 Deg. of freedom    12
 Full point group                 C1      NOp   1
 Largest Abelian subgroup         C1      NOp   1
 Largest concise Abelian subgroup C1      NOp   1
                         Standard orientation:                         
 ---------------------------------------------------------------------
 Center     Atomic      Atomic             Coordinates (Angstroms)
 Number     Number       Type             X           Y           Z
 ---------------------------------------------------------------------
      1          6           0       -0.667675    0.000000    0.000000
      2          6           0        0.667675    0.000000    0.000000
      3          1           0       -1.233137    0.920904    0.000000
      4          1           0       -1.233137   -0.920904    0.000000
      5          1           0        1.233137    0.920904    0.000000
      6          1           0        1.233137   -0.920904    0.000000
 ---------------------------------------------------------------------
 Rotational constants (GHZ):    147.8234770     30.0301220     24.9596132

 **********************************************************************

            Population analysis using the SCF density.

 **********************************************************************

 Orbital symmetries:
       Occupied  (A) (A) (A) (A) (A) (A) (A) (A)
       Virtual   (A) (A) (A) (A) (A) (A) (A) (A) (A) (A) (A) (A)
                 (A) (A) (A) (A) (A) (A) (A) (A) (A) (A) (A) (A)
                 (A) (A) (A) (A) (A) (A) (A) (A) (A) (A) (A) (A)
                 (A) (A) (A) (A) (A) (A)
 The electronic state is 1-A.
 Alpha  occ. eigenvalues --  -11.22867 -11.22703  -1.02709  -0.78871  -0.63701
 Alpha  occ. eigenvalues --   -0.58071  -0.50252  -0.37007
 Alpha virt. eigenvalues --    0.17823   0.26495   0.29308   0.30878   0.39014
 Alpha virt. eigenvalues --    0.49082   0.66189   0.76172   0.77614   0.85077
 Alpha virt. eigenvalues --    0.88989   0.95224   1.08517   1.11918   1.17513
 Alpha virt. eigenvalues --    1.18312   1.32901   1.44572   1.65174   1.66346
 Alpha virt. eigenvalues --    1.80782   2.14550   2.20640   2.25593   2.34433
 Alpha virt. eigenvalues --    2.35495   2.43699   2.52635   2.68239   2.77236
 Alpha virt. eigenvalues --    2.84468   2.95069   3.01777   3.03567   3.09623
 Alpha virt. eigenvalues --    3.37298   3.54463   3.72534   3.86718   4.15640
 Alpha virt. eigenvalues --    4.59833   4.91176
          Condensed to atoms (all electrons):
               1          2          3          4          5          6
     1  C    4.880122   0.639666   0.408380   0.408380  -0.039852  -0.039852
     2  C    0.639666   4.880122  -0.039852  -0.039852   0.408380   0.408380
     3  H    0.408380  -0.039852   0.535408  -0.031225  -0.004267   0.003133
     4  H    0.408380  -0.039852  -0.031225   0.535408   0.003133  -0.004267
     5  H   -0.039852   0.408380  -0.004267   0.003133   0.535408  -0.031225
     6  H   -0.039852   0.408380   0.003133  -0.004267  -0.031225   0.535408
 Mulliken charges:
               1
     1  C   -0.256845
     2  C   -0.256845
     3  H    0.128422
     4  H    0.128422
     5  H    0.128422
     6  H    0.128423
 Sum of Mulliken charges =   0.00000
 Mulliken charges with hydrogens summed into heavy atoms:
               1
     1  C    0.000000
     2  C    0.000000
 Electronic spatial extent (au):  <R**2>=             82.4183
 Charge=              0.0000 electrons
 Dipole moment (field-independent basis, Debye):
    X=              0.0000    Y=              0.0000    Z=              0.0000  Tot=              0.0000
 Quadrupole moment (field-independent basis, Debye-Ang):
   XX=            -12.0067   YY=            -12.2150   ZZ=            -15.4299
   XY=              0.0000   XZ=              0.0000   YZ=              0.0000
 Traceless Quadrupole moment (field-independent basis, Debye-Ang):
   XX=              1.2104   YY=              1.0022   ZZ=             -2.2127
   XY=              0.0000   XZ=              0.0000   YZ=              0.0000
 Octapole moment (field-independent basis, Debye-Ang**2):
  XXX=              0.0000  YYY=              0.0000  ZZZ=              0.0000  XYY=              0.0000
  XXY=              0.0000  XXZ=              0.0000  XZZ=              0.0000  YZZ=              0.0000
  YYZ=              0.0000  XYZ=              0.0000
 Hexadecapole moment (field-independent basis, Debye-Ang**3):
 XXXX=            -66.7151 YYYY=            -25.9712 ZZZZ=            -16.5368 XXXY=              0.0000
 XXXZ=              0.0000 YYYX=              0.0000 YYYZ=              0.0000 ZZZX=              0.0000
 ZZZY=              0.0000 XXYY=            -12.8982 XXZZ=            -14.8714 YYZZ=             -7.7605
 XXYZ=              0.0000 YYXZ=              0.0000 ZZXY=              0.0000
 N-N= 3.337914677384D+01 E-N=-2.480092738635D+02  KE= 7.789794254104D+01
 1\1\GINC-N0286\FOpt\RMP2-FC\6-31G(d,p)\C2H4\GDAVIDS3\21-Feb-2017\0\\#n
  MP2/6-31G(d,p) Opt\\Ethene MP2 6-31Gdp\\0,1\C,-7.6560781318,3.0417447
 916,0.0000006557\C,-6.3258719093,2.9246476989,-0.0000006515\H,-8.21933
 05827,3.0916993519,-0.9209026279\H,-8.2193936372,3.0909624456,0.920905
 0512\H,-5.7625563689,2.8754313508,-0.9209050809\H,-5.76261937,2.874694
 3611,0.9209026449\\Version=ES64L-G09RevE.01\State=1-A\HF=-78.0383284\M
 P2=-78.3172819\RMSD=5.663e-10\RMSF=5.613e-05\Dipole=0.,0.0000006,0.\PG
 =C01 [X(C2H4)]\\@


 TELEVISION IS CALLED A MEDIUM BECAUSE IT ISN'T
 RARE, AND IT ISN'T WELL DONE.
 Job cpu time:       0 days  0 hours  0 minutes 35.5 seconds.
 File lengths (MBytes):  RWF=      5 Int=      0 D2E=      0 Chk=      1 Scr=      1
 Normal termination of Gaussian 09 at Tue Feb 21 18:34:27 2017.
