 Entering Gaussian System, Link 0=g09
 Input=Ethene_MP2_6-31Gd.com
 Output=Ethene_MP2_6-31Gd.log
 Initial command:
 /sw/contrib/gaussian/g09/E01/g09/l1.exe "/scr/Gau-29281.inp" -scrdir="/scr/"
 Entering Link 1 = /sw/contrib/gaussian/g09/E01/g09/l1.exe PID=     29282.
  
 Copyright (c) 1988,1990,1992,1993,1995,1998,2003,2009,2015,
            Gaussian, Inc.  All Rights Reserved.
  
 This is part of the Gaussian(R) 09 program.  It is based on
 the Gaussian(R) 03 system (copyright 2003, Gaussian, Inc.),
 the Gaussian(R) 98 system (copyright 1998, Gaussian, Inc.),
 the Gaussian(R) 94 system (copyright 1995, Gaussian, Inc.),
 the Gaussian 92(TM) system (copyright 1992, Gaussian, Inc.),
 the Gaussian 90(TM) system (copyright 1990, Gaussian, Inc.),
 the Gaussian 88(TM) system (copyright 1988, Gaussian, Inc.),
 the Gaussian 86(TM) system (copyright 1986, Carnegie Mellon
 University), and the Gaussian 82(TM) system (copyright 1983,
 Carnegie Mellon University). Gaussian is a federally registered
 trademark of Gaussian, Inc.
  
 This software contains proprietary and confidential information,
 including trade secrets, belonging to Gaussian, Inc.
  
 This software is provided under written license and may be
 used, copied, transmitted, or stored only in accord with that
 written license.
  
 The following legend is applicable only to US Government
 contracts under FAR:
  
                    RESTRICTED RIGHTS LEGEND
  
 Use, reproduction and disclosure by the US Government is
 subject to restrictions as set forth in subparagraphs (a)
 and (c) of the Commercial Computer Software - Restricted
 Rights clause in FAR 52.227-19.
  
 Gaussian, Inc.
 340 Quinnipiac St., Bldg. 40, Wallingford CT 06492
  
  
 ---------------------------------------------------------------
 Warning -- This program may not be used in any manner that
 competes with the business of Gaussian, Inc. or will provide
 assistance to any competitor of Gaussian, Inc.  The licensee
 of this program is prohibited from giving any competitor of
 Gaussian, Inc. access to this program.  By using this program,
 the user acknowledges that Gaussian, Inc. is engaged in the
 business of creating and licensing software in the field of
 computational chemistry and represents and warrants to the
 licensee that it is not a competitor of Gaussian, Inc. and that
 it will not use this program in any manner prohibited above.
 ---------------------------------------------------------------
  

 Cite this work as:
 Gaussian 09, Revision E.01,
 M. J. Frisch, G. W. Trucks, H. B. Schlegel, G. E. Scuseria, 
 M. A. Robb, J. R. Cheeseman, G. Scalmani, V. Barone, B. Mennucci, 
 G. A. Petersson, H. Nakatsuji, M. Caricato, X. Li, H. P. Hratchian, 
 A. F. Izmaylov, J. Bloino, G. Zheng, J. L. Sonnenberg, M. Hada, 
 M. Ehara, K. Toyota, R. Fukuda, J. Hasegawa, M. Ishida, T. Nakajima, 
 Y. Honda, O. Kitao, H. Nakai, T. Vreven, J. A. Montgomery, Jr., 
 J. E. Peralta, F. Ogliaro, M. Bearpark, J. J. Heyd, E. Brothers, 
 K. N. Kudin, V. N. Staroverov, T. Keith, R. Kobayashi, J. Normand, 
 K. Raghavachari, A. Rendell, J. C. Burant, S. S. Iyengar, J. Tomasi, 
 M. Cossi, N. Rega, J. M. Millam, M. Klene, J. E. Knox, J. B. Cross, 
 V. Bakken, C. Adamo, J. Jaramillo, R. Gomperts, R. E. Stratmann, 
 O. Yazyev, A. J. Austin, R. Cammi, C. Pomelli, J. W. Ochterski, 
 R. L. Martin, K. Morokuma, V. G. Zakrzewski, G. A. Voth, 
 P. Salvador, J. J. Dannenberg, S. Dapprich, A. D. Daniels, 
 O. Farkas, J. B. Foresman, J. V. Ortiz, J. Cioslowski, 
 and D. J. Fox, Gaussian, Inc., Wallingford CT, 2013.
 
 ******************************************
 Gaussian 09:  ES64L-G09RevE.01 30-Nov-2015
                21-Feb-2017 
 ******************************************
 %NProcShared=8
 Will use up to    8 processors via shared memory.
 -------------------
 #n MP2/6-31G(d) Opt
 -------------------
 1/18=20,19=15,38=1/1,3;
 2/9=110,12=2,17=6,18=5,40=1/2;
 3/5=1,6=6,7=1,11=9,16=1,25=1,30=1,71=1/1,2,3;
 4//1;
 5/5=2,38=5/2;
 8/6=4,10=2/1;
 9/15=2,16=-3/6;
 10/5=1/2;
 6/7=2,8=2,9=2,10=2/1;
 7/12=2/1,2,3,16;
 1/18=20,19=15/3(2);
 2/9=110/2;
 99//99;
 2/9=110/2;
 3/5=1,6=6,7=1,11=9,16=1,25=1,30=1,71=1/1,2,3;
 4/5=5,16=3,69=1/1;
 5/5=2,38=5/2;
 8/6=4,10=2/1;
 9/15=2,16=-3/6;
 10/5=1/2;
 7/12=2/1,2,3,16;
 1/18=20,19=15/3(-8);
 2/9=110/2;
 6/7=2,8=2,9=2,10=2/1;
 99//99;
 -----------------
 Ethene MP2 6-31Gd
 -----------------
 Symbolic Z-matrix:
 Charge =  0 Multiplicity = 1
 C                    -7.65068   3.04127   0. 
 C                    -6.33127   2.92512   0. 
 H                    -8.2108    3.09095  -0.93056 
 H                    -8.21086   3.09021   0.93056 
 H                    -5.77109   2.87619  -0.93056 
 H                    -5.77115   2.87544   0.93056 
 

 GradGradGradGradGradGradGradGradGradGradGradGradGradGradGradGradGradGrad
 Berny optimization.
 Initialization pass.
                           ----------------------------
                           !    Initial Parameters    !
                           ! (Angstroms and Degrees)  !
 --------------------------                            --------------------------
 ! Name  Definition              Value          Derivative Info.                !
 --------------------------------------------------------------------------------
 ! R1    R(1,2)                  1.3245         estimate D2E/DX2                !
 ! R2    R(1,3)                  1.0873         estimate D2E/DX2                !
 ! R3    R(1,4)                  1.0873         estimate D2E/DX2                !
 ! R4    R(2,5)                  1.0873         estimate D2E/DX2                !
 ! R5    R(2,6)                  1.0873         estimate D2E/DX2                !
 ! A1    A(2,1,3)              121.1437         estimate D2E/DX2                !
 ! A2    A(2,1,4)              121.1435         estimate D2E/DX2                !
 ! A3    A(3,1,4)              117.7128         estimate D2E/DX2                !
 ! A4    A(1,2,5)              121.1435         estimate D2E/DX2                !
 ! A5    A(1,2,6)              121.1437         estimate D2E/DX2                !
 ! A6    A(5,2,6)              117.7128         estimate D2E/DX2                !
 ! D1    D(3,1,2,5)              0.0007         estimate D2E/DX2                !
 ! D2    D(3,1,2,6)            180.0            estimate D2E/DX2                !
 ! D3    D(4,1,2,5)           -179.9994         estimate D2E/DX2                !
 ! D4    D(4,1,2,6)             -0.0001         estimate D2E/DX2                !
 --------------------------------------------------------------------------------
 Trust Radius=3.00D-01 FncErr=1.00D-07 GrdErr=1.00D-07
 Number of steps in this run=     25 maximum allowed number of steps=    100.
 GradGradGradGradGradGradGradGradGradGradGradGradGradGradGradGradGradGrad

                          Input orientation:                          
 ---------------------------------------------------------------------
 Center     Atomic      Atomic             Coordinates (Angstroms)
 Number     Number       Type             X           Y           Z
 ---------------------------------------------------------------------
      1          6           0       -7.650680    3.041270    0.000000
      2          6           0       -6.331270    2.925120    0.000000
      3          1           0       -8.210800    3.090950   -0.930560
      4          1           0       -8.210860    3.090210    0.930560
      5          1           0       -5.771090    2.876190   -0.930560
      6          1           0       -5.771150    2.875440    0.930560
 ---------------------------------------------------------------------
                    Distance matrix (angstroms):
                    1          2          3          4          5
     1  C    0.000000
     2  C    1.324513   0.000000
     3  H    1.087265   2.103824   0.000000
     4  H    1.087262   2.103819   1.861120   0.000000
     5  H    2.103818   1.087262   2.449144   3.076045   0.000000
     6  H    2.103824   1.087265   3.076053   2.449145   1.861120
                    6
     6  H    0.000000
 Stoichiometry    C2H4
 Framework group  C1[X(C2H4)]
 Deg. of freedom    12
 Full point group                 C1      NOp   1
 Largest Abelian subgroup         C1      NOp   1
 Largest concise Abelian subgroup C1      NOp   1
                         Standard orientation:                         
 ---------------------------------------------------------------------
 Center     Atomic      Atomic             Coordinates (Angstroms)
 Number     Number       Type             X           Y           Z
 ---------------------------------------------------------------------
      1          6           0       -0.662256   -0.000001    0.000000
      2          6           0        0.662256    0.000001   -0.000002
      3          1           0       -1.224576    0.930558   -0.000002
      4          1           0       -1.224569   -0.930562    0.000003
      5          1           0        1.224568    0.930562    0.000006
      6          1           0        1.224576   -0.930558    0.000001
 ---------------------------------------------------------------------
 Rotational constants (GHZ):    144.7715521     30.4973425     25.1907084
 Standard basis: 6-31G(d) (6D, 7F)
 There are    38 symmetry adapted cartesian basis functions of A   symmetry.
 There are    38 symmetry adapted basis functions of A   symmetry.
    38 basis functions,    72 primitive gaussians,    38 cartesian basis functions
     8 alpha electrons        8 beta electrons
       nuclear repulsion energy        33.4454879269 Hartrees.
 NAtoms=    6 NActive=    6 NUniq=    6 SFac= 1.00D+00 NAtFMM=   60 NAOKFM=F Big=F
 Integral buffers will be    131072 words long.
 Raffenetti 1 integral format.
 Two-electron integral symmetry is turned on.
 One-electron integrals computed using PRISM.
 NBasis=    38 RedAO= T EigKep=  7.40D-03  NBF=    38
 NBsUse=    38 1.00D-06 EigRej= -1.00D+00 NBFU=    38
 ExpMin= 1.61D-01 ExpMax= 3.05D+03 ExpMxC= 4.57D+02 IAcc=1 IRadAn=         1 AccDes= 0.00D+00
 Harris functional with IExCor=  205 and IRadAn=       1 diagonalized for initial guess.
 HarFok:  IExCor=  205 AccDes= 0.00D+00 IRadAn=         1 IDoV= 1 UseB2=F ITyADJ=14
 ICtDFT=  3500011 ScaDFX=  1.000000  1.000000  1.000000  1.000000
 FoFCou: FMM=F IPFlag=           0 FMFlag=      100000 FMFlg1=           0
         NFxFlg=           0 DoJE=T BraDBF=F KetDBF=T FulRan=T
         wScrn=  0.000000 ICntrl=     500 IOpCl=  0 I1Cent=   200000004 NGrid=           0
         NMat0=    1 NMatS0=      1 NMatT0=    0 NMatD0=    1 NMtDS0=    0 NMtDT0=    0
 Petite list used in FoFCou.
 Keep R1 ints in memory in canonical form, NReq=1133007.
 Requested convergence on RMS density matrix=1.00D-08 within 128 cycles.
 Requested convergence on MAX density matrix=1.00D-06.
 Requested convergence on             energy=1.00D-06.
 No special actions if energy rises.
 SCF Done:  E(RHF) =  -78.0311719265     A.U. after    9 cycles
            NFock=  9  Conv=0.23D-08     -V/T= 2.0018
 ExpMin= 1.61D-01 ExpMax= 3.05D+03 ExpMxC= 4.57D+02 IAcc=3 IRadAn=         5 AccDes= 0.00D+00
 HarFok:  IExCor=  205 AccDes= 0.00D+00 IRadAn=         5 IDoV=-2 UseB2=F ITyADJ=14
 ICtDFT= 12500011 ScaDFX=  1.000000  1.000000  1.000000  1.000000
 Range of M.O.s used for correlation:     3    38
 NBasis=    38 NAE=     8 NBE=     8 NFC=     2 NFV=     0
 NROrb=     36 NOA=     6 NOB=     6 NVA=    30 NVB=    30
 Fully direct method using O(ONN) memory.
 JobTyp=1 Pass  1:  I=   3 to   8 NPSUse=  2 ParTrn=F ParDer=T DoDerP=T.
 Spin components of T(2) and E(2):
     alpha-alpha T2 =       0.1000486371D-01 E2=     -0.2859933519D-01
     alpha-beta  T2 =       0.7127015092D-01 E2=     -0.1963810788D+00
     beta-beta   T2 =       0.1000486371D-01 E2=     -0.2859933519D-01
 ANorm=    0.1044643422D+01
 E2 =    -0.2535797491D+00 EUMP2 =    -0.78284751675666D+02
          IDoAtm=111111
          Differentiating once with respect to electric field.
                with respect to dipole field.
          Differentiating once with respect to nuclear coordinates.
 Keep R1 ints in memory in canonical form, NReq=1116621.
          There are     1 degrees of freedom in the 1st order CPHF.  IDoFFX=0 NUNeed=     1.
 LinEq1:  Iter=  0 NonCon=     1 RMS=7.29D-03 Max=8.03D-02 NDo=     1
 AX will form     1 AO Fock derivatives at one time.
 LinEq1:  Iter=  1 NonCon=     1 RMS=2.27D-03 Max=1.83D-02 NDo=     1
 LinEq1:  Iter=  2 NonCon=     1 RMS=3.12D-04 Max=2.78D-03 NDo=     1
 LinEq1:  Iter=  3 NonCon=     1 RMS=4.70D-05 Max=2.72D-04 NDo=     1
 LinEq1:  Iter=  4 NonCon=     1 RMS=4.04D-06 Max=2.93D-05 NDo=     1
 LinEq1:  Iter=  5 NonCon=     1 RMS=3.23D-07 Max=2.02D-06 NDo=     1
 LinEq1:  Iter=  6 NonCon=     1 RMS=2.52D-08 Max=1.38D-07 NDo=     1
 LinEq1:  Iter=  7 NonCon=     1 RMS=1.52D-09 Max=9.10D-09 NDo=     1
 LinEq1:  Iter=  8 NonCon=     0 RMS=9.81D-11 Max=5.55D-10 NDo=     1
 Linear equations converged to 1.000D-10 1.000D-09 after     8 iterations.
 End of Minotr F.D. properties file   721 does not exist.
 End of Minotr F.D. properties file   722 does not exist.
 End of Minotr F.D. properties file   788 does not exist.

 **********************************************************************

            Population analysis using the SCF density.

 **********************************************************************

 Orbital symmetries:
       Occupied  (A) (A) (A) (A) (A) (A) (A) (A)
       Virtual   (A) (A) (A) (A) (A) (A) (A) (A) (A) (A) (A) (A)
                 (A) (A) (A) (A) (A) (A) (A) (A) (A) (A) (A) (A)
                 (A) (A) (A) (A) (A) (A)
 The electronic state is 1-A.
 Alpha  occ. eigenvalues --  -11.22798 -11.22625  -1.02987  -0.78419  -0.63876
 Alpha  occ. eigenvalues --   -0.58053  -0.50129  -0.37286
 Alpha virt. eigenvalues --    0.18225   0.26274   0.29035   0.30823   0.39099
 Alpha virt. eigenvalues --    0.49122   0.66355   0.77362   0.77525   0.85073
 Alpha virt. eigenvalues --    0.89200   0.96310   1.10519   1.15737   1.19697
 Alpha virt. eigenvalues --    1.20682   1.33965   1.49389   1.74565   1.81807
 Alpha virt. eigenvalues --    2.13468   2.19616   2.31681   2.41619   2.63113
 Alpha virt. eigenvalues --    2.72423   3.04428   3.07995   4.52338   4.66854
          Condensed to atoms (all electrons):
               1          2          3          4          5          6
     1  C    5.000749   0.639914   0.396555   0.396555  -0.040370  -0.040369
     2  C    0.639914   5.000749  -0.040369  -0.040370   0.396555   0.396555
     3  H    0.396555  -0.040369   0.494798  -0.026892  -0.003587   0.002978
     4  H    0.396555  -0.040370  -0.026892   0.494799   0.002978  -0.003587
     5  H   -0.040370   0.396555  -0.003587   0.002978   0.494798  -0.026892
     6  H   -0.040369   0.396555   0.002978  -0.003587  -0.026892   0.494798
 Mulliken charges:
               1
     1  C   -0.353034
     2  C   -0.353034
     3  H    0.176517
     4  H    0.176517
     5  H    0.176517
     6  H    0.176517
 Sum of Mulliken charges =   0.00000
 Mulliken charges with hydrogens summed into heavy atoms:
               1
     1  C    0.000000
     2  C    0.000000
 Electronic spatial extent (au):  <R**2>=             82.1257
 Charge=              0.0000 electrons
 Dipole moment (field-independent basis, Debye):
    X=              0.0000    Y=              0.0000    Z=              0.0000  Tot=              0.0000
 Quadrupole moment (field-independent basis, Debye-Ang):
   XX=            -12.0967   YY=            -12.1767   ZZ=            -15.4609
   XY=              0.0000   XZ=              0.0000   YZ=              0.0000
 Traceless Quadrupole moment (field-independent basis, Debye-Ang):
   XX=              1.1481   YY=              1.0680   ZZ=             -2.2161
   XY=              0.0000   XZ=              0.0000   YZ=              0.0000
 Octapole moment (field-independent basis, Debye-Ang**2):
  XXX=              0.0000  YYY=              0.0000  ZZZ=              0.0000  XYY=              0.0000
  XXY=              0.0000  XXZ=              0.0000  XZZ=              0.0000  YZZ=              0.0000
  YYZ=              0.0000  XYZ=              0.0000
 Hexadecapole moment (field-independent basis, Debye-Ang**3):
 XXXX=            -66.1612 YYYY=            -25.9819 ZZZZ=            -16.5842 XXXY=             -0.0001
 XXXZ=              0.0000 YYYX=              0.0000 YYYZ=              0.0000 ZZZX=              0.0000
 ZZZY=              0.0000 XXYY=            -12.8436 XXZZ=            -14.7225 YYZZ=             -7.7573
 XXYZ=              0.0000 YYXZ=              0.0000 ZZXY=              0.0000
 N-N= 3.344548792691D+01 E-N=-2.481229101736D+02  KE= 7.789306701425D+01
 Calling FoFJK, ICntrl=  10002127 FMM=F ISym2X=0 I1Cent= 0 IOpClX= 0 NMat=1 NMatS=1 NMatT=0.
 ***** Axes restored to original set *****
 -------------------------------------------------------------------
 Center     Atomic                   Forces (Hartrees/Bohr)
 Number     Number              X              Y              Z
 -------------------------------------------------------------------
      1        6          -0.014205728    0.001250321   -0.000000833
      2        6           0.014205539   -0.001249694    0.000001086
      3        1          -0.000971233    0.000084715    0.002462614
      4        1          -0.000972432    0.000086370   -0.002461137
      5        1           0.000972590   -0.000087124    0.002460909
      6        1           0.000971264   -0.000084587   -0.002462639
 -------------------------------------------------------------------
 Cartesian Forces:  Max     0.014205728 RMS     0.004914689

 GradGradGradGradGradGradGradGradGradGradGradGradGradGradGradGradGradGrad
 Berny optimization.
 FormGI is forming the generalized inverse of G from B-inverse, IUseBI=4.
 Internal  Forces:  Max     0.016211826 RMS     0.004458043
 Search for a local minimum.
 Step number   1 out of a maximum of   25
 All quantities printed in internal units (Hartrees-Bohrs-Radians)
 Mixed Optimization -- RFO/linear search
 Second derivative matrix not updated -- first step.
 The second derivative matrix:
                          R1        R2        R3        R4        R5
           R1           0.60821
           R2           0.00000   0.35131
           R3           0.00000   0.00000   0.35131
           R4           0.00000   0.00000   0.00000   0.35131
           R5           0.00000   0.00000   0.00000   0.00000   0.35131
           A1           0.00000   0.00000   0.00000   0.00000   0.00000
           A2           0.00000   0.00000   0.00000   0.00000   0.00000
           A3           0.00000   0.00000   0.00000   0.00000   0.00000
           A4           0.00000   0.00000   0.00000   0.00000   0.00000
           A5           0.00000   0.00000   0.00000   0.00000   0.00000
           A6           0.00000   0.00000   0.00000   0.00000   0.00000
           D1           0.00000   0.00000   0.00000   0.00000   0.00000
           D2           0.00000   0.00000   0.00000   0.00000   0.00000
           D3           0.00000   0.00000   0.00000   0.00000   0.00000
           D4           0.00000   0.00000   0.00000   0.00000   0.00000
                          A1        A2        A3        A4        A5
           A1           0.16000
           A2           0.00000   0.16000
           A3           0.00000   0.00000   0.16000
           A4           0.00000   0.00000   0.00000   0.16000
           A5           0.00000   0.00000   0.00000   0.00000   0.16000
           A6           0.00000   0.00000   0.00000   0.00000   0.00000
           D1           0.00000   0.00000   0.00000   0.00000   0.00000
           D2           0.00000   0.00000   0.00000   0.00000   0.00000
           D3           0.00000   0.00000   0.00000   0.00000   0.00000
           D4           0.00000   0.00000   0.00000   0.00000   0.00000
                          A6        D1        D2        D3        D4
           A6           0.16000
           D1           0.00000   0.03087
           D2           0.00000   0.00000   0.03087
           D3           0.00000   0.00000   0.00000   0.03087
           D4           0.00000   0.00000   0.00000   0.00000   0.03087
 ITU=  0
     Eigenvalues ---    0.03087   0.03087   0.03087   0.16000   0.16000
     Eigenvalues ---    0.16000   0.16000   0.35131   0.35131   0.35131
     Eigenvalues ---    0.35131   0.60821
 RFO step:  Lambda=-6.16635108D-04 EMin= 3.08730960D-02
 Linear search not attempted -- first point.
 Iteration  1 RMS(Cart)=  0.01620952 RMS(Int)=  0.00004626
 Iteration  2 RMS(Cart)=  0.00004516 RMS(Int)=  0.00000000
 Iteration  3 RMS(Cart)=  0.00000000 RMS(Int)=  0.00000000
 Variable       Old X    -DE/DX   Delta X   Delta X   Delta X     New X
                                 (Linear)    (Quad)   (Total)
    R1        2.50297   0.01621   0.00000   0.02663   0.02663   2.52959
    R2        2.05463  -0.00160   0.00000  -0.00456  -0.00456   2.05008
    R3        2.05463  -0.00160   0.00000  -0.00455  -0.00455   2.05008
    R4        2.05463  -0.00160   0.00000  -0.00455  -0.00455   2.05008
    R5        2.05463  -0.00160   0.00000  -0.00456  -0.00456   2.05008
    A1        2.11436   0.00144   0.00000   0.00899   0.00899   2.12334
    A2        2.11435   0.00144   0.00000   0.00899   0.00899   2.12334
    A3        2.05448  -0.00289   0.00000  -0.01798  -0.01798   2.03650
    A4        2.11435   0.00144   0.00000   0.00899   0.00899   2.12334
    A5        2.11436   0.00144   0.00000   0.00899   0.00899   2.12334
    A6        2.05448  -0.00289   0.00000  -0.01798  -0.01798   2.03650
    D1        0.00001   0.00000   0.00000  -0.00001  -0.00001   0.00000
    D2        3.14159   0.00000   0.00000   0.00000   0.00000  -3.14159
    D3       -3.14158   0.00000   0.00000  -0.00001  -0.00001   3.14159
    D4        0.00000   0.00000   0.00000   0.00000   0.00000   0.00000
         Item               Value     Threshold  Converged?
 Maximum Force            0.016212     0.000450     NO 
 RMS     Force            0.004458     0.000300     NO 
 Maximum Displacement     0.026590     0.001800     NO 
 RMS     Displacement     0.016192     0.001200     NO 
 Predicted change in Energy=-3.088617D-04
 GradGradGradGradGradGradGradGradGradGradGradGradGradGradGradGradGradGrad

                          Input orientation:                          
 ---------------------------------------------------------------------
 Center     Atomic      Atomic             Coordinates (Angstroms)
 Number     Number       Type             X           Y           Z
 ---------------------------------------------------------------------
      1          6           0       -7.657698    3.041889    0.000001
      2          6           0       -6.324251    2.924507   -0.000001
      3          1           0       -8.224867    3.092187   -0.923415
      4          1           0       -8.224931    3.091448    0.923418
      5          1           0       -5.757019    2.874944   -0.923418
      6          1           0       -5.757083    2.874205    0.923415
 ---------------------------------------------------------------------
                    Distance matrix (angstroms):
                    1          2          3          4          5
     1  C    0.000000
     2  C    1.338604   0.000000
     3  H    1.084854   2.119705   0.000000
     4  H    1.084854   2.119706   1.846833   0.000000
     5  H    2.119706   1.084854   2.477391   3.090027   0.000000
     6  H    2.119705   1.084854   3.090025   2.477391   1.846833
                    6
     6  H    0.000000
 Stoichiometry    C2H4
 Framework group  C1[X(C2H4)]
 Deg. of freedom    12
 Full point group                 C1      NOp   1
 Largest Abelian subgroup         C1      NOp   1
 Largest concise Abelian subgroup C1      NOp   1
                         Standard orientation:                         
 ---------------------------------------------------------------------
 Center     Atomic      Atomic             Coordinates (Angstroms)
 Number     Number       Type             X           Y           Z
 ---------------------------------------------------------------------
      1          6           0       -0.669302    0.000000    0.000000
      2          6           0        0.669302    0.000000    0.000000
      3          1           0       -1.238695    0.923417   -0.000001
      4          1           0       -1.238696   -0.923416   -0.000001
      5          1           0        1.238696    0.923416   -0.000001
      6          1           0        1.238695   -0.923417   -0.000001
 ---------------------------------------------------------------------
 Rotational constants (GHZ):    147.0201116     29.8393702     24.8049326
 Standard basis: 6-31G(d) (6D, 7F)
 There are    38 symmetry adapted cartesian basis functions of A   symmetry.
 There are    38 symmetry adapted basis functions of A   symmetry.
    38 basis functions,    72 primitive gaussians,    38 cartesian basis functions
     8 alpha electrons        8 beta electrons
       nuclear repulsion energy        33.2727058904 Hartrees.
 NAtoms=    6 NActive=    6 NUniq=    6 SFac= 1.00D+00 NAtFMM=   60 NAOKFM=F Big=F
 Integral buffers will be    131072 words long.
 Raffenetti 1 integral format.
 Two-electron integral symmetry is turned on.
 One-electron integrals computed using PRISM.
 NBasis=    38 RedAO= T EigKep=  7.82D-03  NBF=    38
 NBsUse=    38 1.00D-06 EigRej= -1.00D+00 NBFU=    38
 Initial guess from the checkpoint file:  "/scr/Gau-29282.chk"
 B after Tr=     0.000000    0.000000    0.000000
         Rot=    1.000000    0.000000    0.000000    0.000001 Ang=   0.00 deg.
 ExpMin= 1.61D-01 ExpMax= 3.05D+03 ExpMxC= 4.57D+02 IAcc=1 IRadAn=         1 AccDes= 0.00D+00
 Harris functional with IExCor=  205 and IRadAn=       1 diagonalized for initial guess.
 HarFok:  IExCor=  205 AccDes= 0.00D+00 IRadAn=         1 IDoV= 1 UseB2=F ITyADJ=14
 ICtDFT=  3500011 ScaDFX=  1.000000  1.000000  1.000000  1.000000
 FoFCou: FMM=F IPFlag=           0 FMFlag=      100000 FMFlg1=           0
         NFxFlg=           0 DoJE=T BraDBF=F KetDBF=T FulRan=T
         wScrn=  0.000000 ICntrl=     500 IOpCl=  0 I1Cent=   200000004 NGrid=           0
         NMat0=    1 NMatS0=      1 NMatT0=    0 NMatD0=    1 NMtDS0=    0 NMtDT0=    0
 Petite list used in FoFCou.
 Keep R1 ints in memory in canonical form, NReq=1133007.
 Requested convergence on RMS density matrix=1.00D-08 within 128 cycles.
 Requested convergence on MAX density matrix=1.00D-06.
 Requested convergence on             energy=1.00D-06.
 No special actions if energy rises.
 SCF Done:  E(RHF) =  -78.0308784946     A.U. after    7 cycles
            NFock=  7  Conv=0.55D-08     -V/T= 2.0022
 ExpMin= 1.61D-01 ExpMax= 3.05D+03 ExpMxC= 4.57D+02 IAcc=3 IRadAn=         5 AccDes= 0.00D+00
 HarFok:  IExCor=  205 AccDes= 0.00D+00 IRadAn=         5 IDoV=-2 UseB2=F ITyADJ=14
 ICtDFT= 12500011 ScaDFX=  1.000000  1.000000  1.000000  1.000000
 Range of M.O.s used for correlation:     3    38
 NBasis=    38 NAE=     8 NBE=     8 NFC=     2 NFV=     0
 NROrb=     36 NOA=     6 NOB=     6 NVA=    30 NVB=    30
 Fully direct method using O(ONN) memory.
 JobTyp=1 Pass  1:  I=   3 to   8 NPSUse=  2 ParTrn=F ParDer=T DoDerP=T.
 Spin components of T(2) and E(2):
     alpha-alpha T2 =       0.1007840018D-01 E2=     -0.2864199074D-01
     alpha-beta  T2 =       0.7191319173D-01 E2=     -0.1968596460D+00
     beta-beta   T2 =       0.1007840018D-01 E2=     -0.2864199074D-01
 ANorm=    0.1045021527D+01
 E2 =    -0.2541436275D+00 EUMP2 =    -0.78285022122046D+02
          IDoAtm=111111
          Differentiating once with respect to electric field.
                with respect to dipole field.
          Differentiating once with respect to nuclear coordinates.
 Keep R1 ints in memory in canonical form, NReq=1116621.
          There are     1 degrees of freedom in the 1st order CPHF.  IDoFFX=0 NUNeed=     1.
 LinEq1:  Iter=  0 NonCon=     1 RMS=7.42D-03 Max=8.29D-02 NDo=     1
 AX will form     1 AO Fock derivatives at one time.
 LinEq1:  Iter=  1 NonCon=     1 RMS=2.31D-03 Max=1.86D-02 NDo=     1
 LinEq1:  Iter=  2 NonCon=     1 RMS=3.13D-04 Max=2.82D-03 NDo=     1
 LinEq1:  Iter=  3 NonCon=     1 RMS=4.74D-05 Max=2.76D-04 NDo=     1
 LinEq1:  Iter=  4 NonCon=     1 RMS=4.05D-06 Max=3.01D-05 NDo=     1
 LinEq1:  Iter=  5 NonCon=     1 RMS=3.19D-07 Max=1.97D-06 NDo=     1
 LinEq1:  Iter=  6 NonCon=     1 RMS=2.49D-08 Max=1.36D-07 NDo=     1
 LinEq1:  Iter=  7 NonCon=     1 RMS=1.50D-09 Max=9.02D-09 NDo=     1
 LinEq1:  Iter=  8 NonCon=     0 RMS=9.11D-11 Max=5.06D-10 NDo=     1
 Linear equations converged to 1.000D-10 1.000D-09 after     8 iterations.
 End of Minotr F.D. properties file   721 does not exist.
 End of Minotr F.D. properties file   722 does not exist.
 End of Minotr F.D. properties file   788 does not exist.
 Calling FoFJK, ICntrl=  10002127 FMM=F ISym2X=0 I1Cent= 0 IOpClX= 0 NMat=1 NMatS=1 NMatT=0.
 ***** Axes restored to original set *****
 -------------------------------------------------------------------
 Center     Atomic                   Forces (Hartrees/Bohr)
 Number     Number              X              Y              Z
 -------------------------------------------------------------------
      1        6           0.002795871   -0.000246258    0.000000073
      2        6          -0.002795933    0.000245910   -0.000000098
      3        1          -0.000105593    0.000009397   -0.000107300
      4        1          -0.000105429    0.000009336    0.000107136
      5        1           0.000105460   -0.000009122   -0.000107108
      6        1           0.000105623   -0.000009263    0.000107297
 -------------------------------------------------------------------
 Cartesian Forces:  Max     0.002795933 RMS     0.000938264

 GradGradGradGradGradGradGradGradGradGradGradGradGradGradGradGradGradGrad
 Berny optimization.
 Using GEDIIS/GDIIS optimizer.
 FormGI is forming the generalized inverse of G from B-inverse, IUseBI=4.
 Internal  Forces:  Max     0.002594844 RMS     0.000674582
 Search for a local minimum.
 Step number   2 out of a maximum of   25
 All quantities printed in internal units (Hartrees-Bohrs-Radians)
 Mixed Optimization -- En-DIIS/RFO-DIIS
 Update second derivatives using D2CorX and points    1    2
 DE= -2.70D-04 DEPred=-3.09D-04 R= 8.76D-01
 TightC=F SS=  1.41D+00  RLast= 4.20D-02 DXNew= 5.0454D-01 1.2592D-01
 Trust test= 8.76D-01 RLast= 4.20D-02 DXMaxT set to 3.00D-01
 The second derivative matrix:
                          R1        R2        R3        R4        R5
           R1           0.69775
           R2          -0.00588   0.35161
           R3          -0.00587   0.00030   0.35161
           R4          -0.00587   0.00030   0.00030   0.35161
           R5          -0.00588   0.00030   0.00030   0.00030   0.35161
           A1           0.00111   0.00011   0.00011   0.00011   0.00011
           A2           0.00111   0.00011   0.00011   0.00011   0.00011
           A3          -0.00222  -0.00023  -0.00023  -0.00023  -0.00023
           A4           0.00111   0.00011   0.00011   0.00011   0.00011
           A5           0.00111   0.00011   0.00011   0.00011   0.00011
           A6          -0.00222  -0.00023  -0.00023  -0.00023  -0.00023
           D1           0.00000   0.00000   0.00000   0.00000   0.00000
           D2           0.00000   0.00000   0.00000   0.00000   0.00000
           D3          -0.00001   0.00000   0.00000   0.00000   0.00000
           D4           0.00000   0.00000   0.00000   0.00000   0.00000
                          A1        A2        A3        A4        A5
           A1           0.15958
           A2          -0.00042   0.15958
           A3           0.00084   0.00084   0.15833
           A4          -0.00042  -0.00042   0.00084   0.15958
           A5          -0.00042  -0.00042   0.00084  -0.00042   0.15958
           A6           0.00084   0.00084  -0.00167   0.00084   0.00084
           D1           0.00000   0.00000   0.00000   0.00000   0.00000
           D2           0.00000   0.00000   0.00000   0.00000   0.00000
           D3           0.00000   0.00000   0.00000   0.00000   0.00000
           D4           0.00000   0.00000   0.00000   0.00000   0.00000
                          A6        D1        D2        D3        D4
           A6           0.15833
           D1           0.00000   0.03087
           D2           0.00000   0.00000   0.03087
           D3           0.00000   0.00000   0.00000   0.03087
           D4           0.00000   0.00000   0.00000   0.00000   0.03087
 ITU=  1  0
 Use linear search instead of GDIIS.
     Eigenvalues ---    0.03087   0.03087   0.03087   0.15495   0.16000
     Eigenvalues ---    0.16000   0.16000   0.35131   0.35131   0.35131
     Eigenvalues ---    0.35213   0.69818
 RFO step:  Lambda=-2.70461009D-06 EMin= 3.08730960D-02
 Quartic linear search produced a step of -0.10361.
 Iteration  1 RMS(Cart)=  0.00102987 RMS(Int)=  0.00000002
 Iteration  2 RMS(Cart)=  0.00000002 RMS(Int)=  0.00000000
 Variable       Old X    -DE/DX   Delta X   Delta X   Delta X     New X
                                 (Linear)    (Quad)   (Total)
    R1        2.52959  -0.00259  -0.00276  -0.00099  -0.00375   2.52585
    R2        2.05008   0.00015   0.00047  -0.00010   0.00037   2.05044
    R3        2.05008   0.00015   0.00047  -0.00010   0.00037   2.05044
    R4        2.05008   0.00015   0.00047  -0.00010   0.00037   2.05044
    R5        2.05008   0.00015   0.00047  -0.00010   0.00037   2.05044
    A1        2.12334   0.00002  -0.00093   0.00105   0.00012   2.12346
    A2        2.12334   0.00002  -0.00093   0.00105   0.00012   2.12346
    A3        2.03650  -0.00005   0.00186  -0.00209  -0.00023   2.03626
    A4        2.12334   0.00002  -0.00093   0.00105   0.00012   2.12346
    A5        2.12334   0.00002  -0.00093   0.00105   0.00012   2.12346
    A6        2.03650  -0.00005   0.00186  -0.00210  -0.00023   2.03626
    D1        0.00000   0.00000   0.00000   0.00000   0.00000   0.00000
    D2       -3.14159   0.00000   0.00000   0.00000   0.00000   3.14159
    D3        3.14159   0.00000   0.00000   0.00000   0.00001  -3.14159
    D4        0.00000   0.00000   0.00000   0.00000   0.00000   0.00000
         Item               Value     Threshold  Converged?
 Maximum Force            0.002595     0.000450     NO 
 RMS     Force            0.000675     0.000300     NO 
 Maximum Displacement     0.001867     0.001800     NO 
 RMS     Displacement     0.001030     0.001200     YES
 Predicted change in Energy=-4.938244D-06
 GradGradGradGradGradGradGradGradGradGradGradGradGradGradGradGradGradGrad

                          Input orientation:                          
 ---------------------------------------------------------------------
 Center     Atomic      Atomic             Coordinates (Angstroms)
 Number     Number       Type             X           Y           Z
 ---------------------------------------------------------------------
      1          6           0       -7.656711    3.041800    0.000001
      2          6           0       -6.325239    2.924592   -0.000001
      3          1           0       -8.224088    3.092119   -0.923514
      4          1           0       -8.224151    3.091380    0.923517
      5          1           0       -5.757799    2.875014   -0.923517
      6          1           0       -5.757862    2.874275    0.923514
 ---------------------------------------------------------------------
                    Distance matrix (angstroms):
                    1          2          3          4          5
     1  C    0.000000
     2  C    1.336620   0.000000
     3  H    1.085048   2.118152   0.000000
     4  H    1.085048   2.118152   1.847031   0.000000
     5  H    2.118152   1.085048   2.475826   3.088890   0.000000
     6  H    2.118152   1.085048   3.088890   2.475826   1.847031
                    6
     6  H    0.000000
 Stoichiometry    C2H4
 Framework group  C1[X(C2H4)]
 Deg. of freedom    12
 Full point group                 C1      NOp   1
 Largest Abelian subgroup         C1      NOp   1
 Largest concise Abelian subgroup C1      NOp   1
                         Standard orientation:                         
 ---------------------------------------------------------------------
 Center     Atomic      Atomic             Coordinates (Angstroms)
 Number     Number       Type             X           Y           Z
 ---------------------------------------------------------------------
      1          6           0       -0.668310    0.000000    0.000000
      2          6           0        0.668310    0.000000    0.000000
      3          1           0       -1.237913    0.923516    0.000000
      4          1           0       -1.237913   -0.923516    0.000001
      5          1           0        1.237913    0.923516    0.000001
      6          1           0        1.237913   -0.923516    0.000000
 ---------------------------------------------------------------------
 Rotational constants (GHZ):    146.9885528     29.9093813     24.8523913
 Standard basis: 6-31G(d) (6D, 7F)
 There are    38 symmetry adapted cartesian basis functions of A   symmetry.
 There are    38 symmetry adapted basis functions of A   symmetry.
    38 basis functions,    72 primitive gaussians,    38 cartesian basis functions
     8 alpha electrons        8 beta electrons
       nuclear repulsion energy        33.2964559251 Hartrees.
 NAtoms=    6 NActive=    6 NUniq=    6 SFac= 1.00D+00 NAtFMM=   60 NAOKFM=F Big=F
 Integral buffers will be    131072 words long.
 Raffenetti 1 integral format.
 Two-electron integral symmetry is turned on.
 One-electron integrals computed using PRISM.
 NBasis=    38 RedAO= T EigKep=  7.77D-03  NBF=    38
 NBsUse=    38 1.00D-06 EigRej= -1.00D+00 NBFU=    38
 Initial guess from the checkpoint file:  "/scr/Gau-29282.chk"
 B after Tr=     0.000000    0.000000    0.000000
         Rot=    1.000000    0.000000    0.000000    0.000000 Ang=   0.00 deg.
 Keep R1 ints in memory in canonical form, NReq=1133007.
 Requested convergence on RMS density matrix=1.00D-08 within 128 cycles.
 Requested convergence on MAX density matrix=1.00D-06.
 Requested convergence on             energy=1.00D-06.
 No special actions if energy rises.
 SCF Done:  E(RHF) =  -78.0309722346     A.U. after    7 cycles
            NFock=  7  Conv=0.83D-09     -V/T= 2.0021
 ExpMin= 1.61D-01 ExpMax= 3.05D+03 ExpMxC= 4.57D+02 IAcc=3 IRadAn=         5 AccDes= 0.00D+00
 HarFok:  IExCor=  205 AccDes= 0.00D+00 IRadAn=         5 IDoV=-2 UseB2=F ITyADJ=14
 ICtDFT= 12500011 ScaDFX=  1.000000  1.000000  1.000000  1.000000
 Range of M.O.s used for correlation:     3    38
 NBasis=    38 NAE=     8 NBE=     8 NFC=     2 NFV=     0
 NROrb=     36 NOA=     6 NOB=     6 NVA=    30 NVB=    30
 Fully direct method using O(ONN) memory.
 JobTyp=1 Pass  1:  I=   3 to   8 NPSUse=  2 ParTrn=F ParDer=T DoDerP=T.
 Spin components of T(2) and E(2):
     alpha-alpha T2 =       0.1006758016D-01 E2=     -0.2863509197D-01
     alpha-beta  T2 =       0.7181561114D-01 E2=     -0.1967851755D+00
     beta-beta   T2 =       0.1006758016D-01 E2=     -0.2863509197D-01
 ANorm=    0.1044964483D+01
 E2 =    -0.2540553594D+00 EUMP2 =    -0.78285027594046D+02
          IDoAtm=111111
          Differentiating once with respect to electric field.
                with respect to dipole field.
          Differentiating once with respect to nuclear coordinates.
 Keep R1 ints in memory in canonical form, NReq=1116621.
          There are     1 degrees of freedom in the 1st order CPHF.  IDoFFX=0 NUNeed=     1.
 LinEq1:  Iter=  0 NonCon=     1 RMS=7.40D-03 Max=8.25D-02 NDo=     1
 AX will form     1 AO Fock derivatives at one time.
 LinEq1:  Iter=  1 NonCon=     1 RMS=2.30D-03 Max=1.86D-02 NDo=     1
 LinEq1:  Iter=  2 NonCon=     1 RMS=3.13D-04 Max=2.81D-03 NDo=     1
 LinEq1:  Iter=  3 NonCon=     1 RMS=4.73D-05 Max=2.75D-04 NDo=     1
 LinEq1:  Iter=  4 NonCon=     1 RMS=4.04D-06 Max=3.00D-05 NDo=     1
 LinEq1:  Iter=  5 NonCon=     1 RMS=3.19D-07 Max=1.97D-06 NDo=     1
 LinEq1:  Iter=  6 NonCon=     1 RMS=2.49D-08 Max=1.36D-07 NDo=     1
 LinEq1:  Iter=  7 NonCon=     1 RMS=1.50D-09 Max=9.02D-09 NDo=     1
 LinEq1:  Iter=  8 NonCon=     0 RMS=9.10D-11 Max=5.10D-10 NDo=     1
 Linear equations converged to 1.000D-10 1.000D-09 after     8 iterations.
 End of Minotr F.D. properties file   721 does not exist.
 End of Minotr F.D. properties file   722 does not exist.
 End of Minotr F.D. properties file   788 does not exist.
 Calling FoFJK, ICntrl=  10002127 FMM=F ISym2X=0 I1Cent= 0 IOpClX= 0 NMat=1 NMatS=1 NMatT=0.
 ***** Axes restored to original set *****
 -------------------------------------------------------------------
 Center     Atomic                   Forces (Hartrees/Bohr)
 Number     Number              X              Y              Z
 -------------------------------------------------------------------
      1        6           0.000388021   -0.000034085   -0.000000002
      2        6          -0.000388023    0.000034255    0.000000003
      3        1          -0.000082710    0.000007240    0.000018683
      4        1          -0.000082708    0.000007243   -0.000018683
      5        1           0.000082710   -0.000007340    0.000018684
      6        1           0.000082710   -0.000007313   -0.000018686
 -------------------------------------------------------------------
 Cartesian Forces:  Max     0.000388023 RMS     0.000135898

 GradGradGradGradGradGradGradGradGradGradGradGradGradGradGradGradGradGrad
 Berny optimization.
 Using GEDIIS/GDIIS optimizer.
 FormGI is forming the generalized inverse of G from B-inverse, IUseBI=4.
 Internal  Forces:  Max     0.000223464 RMS     0.000077161
 Search for a local minimum.
 Step number   3 out of a maximum of   25
 All quantities printed in internal units (Hartrees-Bohrs-Radians)
 Mixed Optimization -- En-DIIS/RFO-DIIS
 Swapping is turned off.
 Update second derivatives using D2CorX and points    1    2    3
 DE= -5.47D-06 DEPred=-4.94D-06 R= 1.11D+00
 TightC=F SS=  1.41D+00  RLast= 3.84D-03 DXNew= 5.0454D-01 1.1520D-02
 Trust test= 1.11D+00 RLast= 3.84D-03 DXMaxT set to 3.00D-01
 The second derivative matrix:
                          R1        R2        R3        R4        R5
           R1           0.63850
           R2           0.00226   0.35094
           R3           0.00226  -0.00036   0.35095
           R4           0.00226  -0.00036  -0.00036   0.35095
           R5           0.00226  -0.00036  -0.00036  -0.00036   0.35094
           A1           0.01304  -0.00050  -0.00050  -0.00050  -0.00050
           A2           0.01304  -0.00050  -0.00050  -0.00050  -0.00050
           A3          -0.02608   0.00101   0.00100   0.00100   0.00101
           A4           0.01304  -0.00050  -0.00050  -0.00050  -0.00050
           A5           0.01304  -0.00050  -0.00050  -0.00050  -0.00050
           A6          -0.02608   0.00101   0.00100   0.00100   0.00101
           D1           0.00000   0.00000   0.00000   0.00000   0.00000
           D2           0.00002   0.00000   0.00000   0.00000   0.00000
           D3          -0.00002   0.00000   0.00000   0.00000   0.00000
           D4           0.00000   0.00000   0.00000   0.00000   0.00000
                          A1        A2        A3        A4        A5
           A1           0.15942
           A2          -0.00057   0.15943
           A3           0.00115   0.00115   0.15770
           A4          -0.00057  -0.00057   0.00115   0.15943
           A5          -0.00058  -0.00057   0.00115  -0.00057   0.15942
           A6           0.00115   0.00115  -0.00230   0.00115   0.00115
           D1           0.00000   0.00000   0.00000   0.00000   0.00000
           D2           0.00000   0.00000   0.00000   0.00000   0.00000
           D3           0.00000   0.00000   0.00000   0.00000   0.00000
           D4           0.00000   0.00000   0.00000   0.00000   0.00000
                          A6        D1        D2        D3        D4
           A6           0.15770
           D1           0.00000   0.03087
           D2           0.00000   0.00000   0.03087
           D3           0.00000   0.00000   0.00000   0.03087
           D4           0.00000   0.00000   0.00000   0.00000   0.03087
 ITU=  1  1  0
     Eigenvalues ---    0.03087   0.03087   0.03087   0.14886   0.16000
     Eigenvalues ---    0.16000   0.16000   0.34987   0.35131   0.35131
     Eigenvalues ---    0.35131   0.64273
 En-DIIS/RFO-DIIS IScMMF=        0 using points:     3    2
 RFO step:  Lambda=-1.72749300D-07.
 DidBck=F Rises=F RFO-DIIS coefs:    1.10587   -0.10587
 Iteration  1 RMS(Cart)=  0.00033403 RMS(Int)=  0.00000009
 Iteration  2 RMS(Cart)=  0.00000009 RMS(Int)=  0.00000000
 Variable       Old X    -DE/DX   Delta X   Delta X   Delta X     New X
                                 (Linear)    (Quad)   (Total)
    R1        2.52585  -0.00022  -0.00040  -0.00005  -0.00045   2.52540
    R2        2.05044   0.00003   0.00004   0.00005   0.00009   2.05053
    R3        2.05044   0.00003   0.00004   0.00005   0.00009   2.05053
    R4        2.05044   0.00003   0.00004   0.00005   0.00009   2.05053
    R5        2.05044   0.00003   0.00004   0.00005   0.00009   2.05053
    A1        2.12346   0.00006   0.00001   0.00039   0.00040   2.12386
    A2        2.12346   0.00005   0.00001   0.00039   0.00040   2.12386
    A3        2.03626  -0.00011  -0.00002  -0.00077  -0.00080   2.03547
    A4        2.12346   0.00006   0.00001   0.00039   0.00040   2.12386
    A5        2.12346   0.00006   0.00001   0.00039   0.00040   2.12386
    A6        2.03626  -0.00011  -0.00002  -0.00077  -0.00080   2.03547
    D1        0.00000   0.00000   0.00000   0.00000   0.00000   0.00000
    D2        3.14159   0.00000   0.00000   0.00000   0.00000  -3.14159
    D3       -3.14159   0.00000   0.00000   0.00000   0.00000   3.14159
    D4        0.00000   0.00000   0.00000   0.00000   0.00000   0.00000
         Item               Value     Threshold  Converged?
 Maximum Force            0.000223     0.000450     YES
 RMS     Force            0.000077     0.000300     YES
 Maximum Displacement     0.000516     0.001800     YES
 RMS     Displacement     0.000334     0.001200     YES
 Predicted change in Energy=-1.866588D-07
 Optimization completed.
    -- Stationary point found.
                           ----------------------------
                           !   Optimized Parameters   !
                           ! (Angstroms and Degrees)  !
 --------------------------                            --------------------------
 ! Name  Definition              Value          Derivative Info.                !
 --------------------------------------------------------------------------------
 ! R1    R(1,2)                  1.3366         -DE/DX =   -0.0002              !
 ! R2    R(1,3)                  1.085          -DE/DX =    0.0                 !
 ! R3    R(1,4)                  1.085          -DE/DX =    0.0                 !
 ! R4    R(2,5)                  1.085          -DE/DX =    0.0                 !
 ! R5    R(2,6)                  1.085          -DE/DX =    0.0                 !
 ! A1    A(2,1,3)              121.6653         -DE/DX =    0.0001              !
 ! A2    A(2,1,4)              121.6653         -DE/DX =    0.0001              !
 ! A3    A(3,1,4)              116.6694         -DE/DX =   -0.0001              !
 ! A4    A(1,2,5)              121.6653         -DE/DX =    0.0001              !
 ! A5    A(1,2,6)              121.6653         -DE/DX =    0.0001              !
 ! A6    A(5,2,6)              116.6694         -DE/DX =   -0.0001              !
 ! D1    D(3,1,2,5)              0.0            -DE/DX =    0.0                 !
 ! D2    D(3,1,2,6)           -180.0001         -DE/DX =    0.0                 !
 ! D3    D(4,1,2,5)            180.0001         -DE/DX =    0.0                 !
 ! D4    D(4,1,2,6)              0.0            -DE/DX =    0.0                 !
 --------------------------------------------------------------------------------
 GradGradGradGradGradGradGradGradGradGradGradGradGradGradGradGradGradGrad

                          Input orientation:                          
 ---------------------------------------------------------------------
 Center     Atomic      Atomic             Coordinates (Angstroms)
 Number     Number       Type             X           Y           Z
 ---------------------------------------------------------------------
      1          6           0       -7.656711    3.041800    0.000001
      2          6           0       -6.325239    2.924592   -0.000001
      3          1           0       -8.224088    3.092119   -0.923514
      4          1           0       -8.224151    3.091380    0.923517
      5          1           0       -5.757799    2.875014   -0.923517
      6          1           0       -5.757862    2.874275    0.923514
 ---------------------------------------------------------------------
                    Distance matrix (angstroms):
                    1          2          3          4          5
     1  C    0.000000
     2  C    1.336620   0.000000
     3  H    1.085048   2.118152   0.000000
     4  H    1.085048   2.118152   1.847031   0.000000
     5  H    2.118152   1.085048   2.475826   3.088890   0.000000
     6  H    2.118152   1.085048   3.088890   2.475826   1.847031
                    6
     6  H    0.000000
 Stoichiometry    C2H4
 Framework group  C1[X(C2H4)]
 Deg. of freedom    12
 Full point group                 C1      NOp   1
 Largest Abelian subgroup         C1      NOp   1
 Largest concise Abelian subgroup C1      NOp   1
                         Standard orientation:                         
 ---------------------------------------------------------------------
 Center     Atomic      Atomic             Coordinates (Angstroms)
 Number     Number       Type             X           Y           Z
 ---------------------------------------------------------------------
      1          6           0       -0.668310    0.000000    0.000000
      2          6           0        0.668310    0.000000    0.000000
      3          1           0       -1.237913    0.923516    0.000000
      4          1           0       -1.237913   -0.923516    0.000001
      5          1           0        1.237913    0.923516    0.000001
      6          1           0        1.237913   -0.923516    0.000000
 ---------------------------------------------------------------------
 Rotational constants (GHZ):    146.9885528     29.9093813     24.8523913

 **********************************************************************

            Population analysis using the SCF density.

 **********************************************************************

 Orbital symmetries:
       Occupied  (A) (A) (A) (A) (A) (A) (A) (A)
       Virtual   (A) (A) (A) (A) (A) (A) (A) (A) (A) (A) (A) (A)
                 (A) (A) (A) (A) (A) (A) (A) (A) (A) (A) (A) (A)
                 (A) (A) (A) (A) (A) (A)
 The electronic state is 1-A.
 Alpha  occ. eigenvalues --  -11.22985 -11.22822  -1.02608  -0.78800  -0.63607
 Alpha  occ. eigenvalues --   -0.58158  -0.50271  -0.36999
 Alpha virt. eigenvalues --    0.17903   0.26440   0.29150   0.30699   0.39054
 Alpha virt. eigenvalues --    0.49065   0.66849   0.76653   0.77615   0.85238
 Alpha virt. eigenvalues --    0.88992   0.95198   1.10956   1.15603   1.20119
 Alpha virt. eigenvalues --    1.21029   1.33129   1.47381   1.74011   1.82210
 Alpha virt. eigenvalues --    2.12956   2.19926   2.31974   2.40008   2.61784
 Alpha virt. eigenvalues --    2.71020   3.05084   3.06429   4.51882   4.67004
          Condensed to atoms (all electrons):
               1          2          3          4          5          6
     1  C    5.002001   0.638751   0.395784   0.395784  -0.039023  -0.039023
     2  C    0.638751   5.002001  -0.039023  -0.039023   0.395784   0.395784
     3  H    0.395784  -0.039023   0.494839  -0.028252  -0.003327   0.002842
     4  H    0.395784  -0.039023  -0.028252   0.494839   0.002842  -0.003327
     5  H   -0.039023   0.395784  -0.003327   0.002842   0.494839  -0.028252
     6  H   -0.039023   0.395784   0.002842  -0.003327  -0.028252   0.494839
 Mulliken charges:
               1
     1  C   -0.354274
     2  C   -0.354274
     3  H    0.177137
     4  H    0.177137
     5  H    0.177137
     6  H    0.177137
 Sum of Mulliken charges =   0.00000
 Mulliken charges with hydrogens summed into heavy atoms:
               1
     1  C    0.000000
     2  C    0.000000
 Electronic spatial extent (au):  <R**2>=             82.7402
 Charge=              0.0000 electrons
 Dipole moment (field-independent basis, Debye):
    X=              0.0000    Y=              0.0000    Z=              0.0000  Tot=              0.0000
 Quadrupole moment (field-independent basis, Debye-Ang):
   XX=            -11.9816   YY=            -12.2441   ZZ=            -15.4906
   XY=              0.0000   XZ=              0.0000   YZ=              0.0000
 Traceless Quadrupole moment (field-independent basis, Debye-Ang):
   XX=              1.2571   YY=              0.9947   ZZ=             -2.2518
   XY=              0.0000   XZ=              0.0000   YZ=              0.0000
 Octapole moment (field-independent basis, Debye-Ang**2):
  XXX=              0.0000  YYY=              0.0000  ZZZ=              0.0000  XYY=              0.0000
  XXY=              0.0000  XXZ=              0.0000  XZZ=              0.0000  YZZ=              0.0000
  YYZ=              0.0000  XYZ=              0.0000
 Hexadecapole moment (field-independent basis, Debye-Ang**3):
 XXXX=            -66.7241 YYYY=            -25.9005 ZZZZ=            -16.6583 XXXY=              0.0000
 XXXZ=              0.0000 YYYX=              0.0000 YYYZ=              0.0000 ZZZX=              0.0000
 ZZZY=              0.0000 XXYY=            -12.9316 XXZZ=            -14.9040 YYZZ=             -7.7330
 XXYZ=              0.0000 YYXZ=              0.0000 ZZXY=              0.0000
 N-N= 3.329645592508D+01 E-N=-2.477948154093D+02  KE= 7.786493702509D+01
 1\1\GINC-N0286\FOpt\RMP2-FC\6-31G(d)\C2H4\GDAVIDS3\21-Feb-2017\0\\#n M
 P2/6-31G(d) Opt\\Ethene MP2 6-31Gd\\0,1\C,-7.6567107546,3.0418004677,0
 .0000006654\C,-6.3252392946,2.9245919281,-0.0000006614\H,-8.2240878922
 ,3.0921191516,-0.9235143715\H,-8.2241511326,3.0913802542,0.9235168164\
 H,-5.7577988588,2.875013687,-0.9235168471\H,-5.7578620671,2.8742745114
 ,0.9235143896\\Version=ES64L-G09RevE.01\State=1-A\HF=-78.0309722\MP2=-
 78.2850276\RMSD=8.330e-10\RMSF=1.359e-04\Dipole=0.,0.0000008,0.\PG=C01
  [X(C2H4)]\\@


 THE THINKER DIES, BUT HIS THOUGHTS ARE BEYOND THE 
 REACH OF DESTRUCTION.  MEN ARE MORTAL; BUT IDEAS 
 ARE IMMORTAL.
                              -- WALTER LIPPMANN
 Job cpu time:       0 days  0 hours  0 minutes 32.9 seconds.
 File lengths (MBytes):  RWF=      5 Int=      0 D2E=      0 Chk=      1 Scr=      1
 Normal termination of Gaussian 09 at Tue Feb 21 18:36:43 2017.
