 Entering Gaussian System, Link 0=g09
 Input=TF2.com
 Output=TF2.log
 Initial command:
 /gscratch/pfaendtner/codes/G09/g09/l1.exe /gscratch/pfaendtner/wesley/gaussian/Gau-27689.inp -scrdir=/gscratch/pfaendtner/wesley/gaussian/
 Entering Link 1 = /gscratch/pfaendtner/codes/G09/g09/l1.exe PID=     27705.
  
 Copyright (c) 1988,1990,1992,1993,1995,1998,2003,2009, Gaussian, Inc.
                  All Rights Reserved.
  
 This is part of the Gaussian(R) 09 program.  It is based on
 the Gaussian(R) 03 system (copyright 2003, Gaussian, Inc.),
 the Gaussian(R) 98 system (copyright 1998, Gaussian, Inc.),
 the Gaussian(R) 94 system (copyright 1995, Gaussian, Inc.),
 the Gaussian 92(TM) system (copyright 1992, Gaussian, Inc.),
 the Gaussian 90(TM) system (copyright 1990, Gaussian, Inc.),
 the Gaussian 88(TM) system (copyright 1988, Gaussian, Inc.),
 the Gaussian 86(TM) system (copyright 1986, Carnegie Mellon
 University), and the Gaussian 82(TM) system (copyright 1983,
 Carnegie Mellon University). Gaussian is a federally registered
 trademark of Gaussian, Inc.
  
 This software contains proprietary and confidential information,
 including trade secrets, belonging to Gaussian, Inc.
  
 This software is provided under written license and may be
 used, copied, transmitted, or stored only in accord with that
 written license.
  
 The following legend is applicable only to US Government
 contracts under FAR:
  
                    RESTRICTED RIGHTS LEGEND
  
 Use, reproduction and disclosure by the US Government is
 subject to restrictions as set forth in subparagraphs (a)
 and (c) of the Commercial Computer Software - Restricted
 Rights clause in FAR 52.227-19.
  
 Gaussian, Inc.
 340 Quinnipiac St., Bldg. 40, Wallingford CT 06492
  
  
 ---------------------------------------------------------------
 Warning -- This program may not be used in any manner that
 competes with the business of Gaussian, Inc. or will provide
 assistance to any competitor of Gaussian, Inc.  The licensee
 of this program is prohibited from giving any competitor of
 Gaussian, Inc. access to this program.  By using this program,
 the user acknowledges that Gaussian, Inc. is engaged in the
 business of creating and licensing software in the field of
 computational chemistry and represents and warrants to the
 licensee that it is not a competitor of Gaussian, Inc. and that
 it will not use this program in any manner prohibited above.
 ---------------------------------------------------------------
  

 Cite this work as:
 Gaussian 09, Revision A.02,
 M. J. Frisch, G. W. Trucks, H. B. Schlegel, G. E. Scuseria, 
 M. A. Robb, J. R. Cheeseman, G. Scalmani, V. Barone, B. Mennucci, 
 G. A. Petersson, H. Nakatsuji, M. Caricato, X. Li, H. P. Hratchian, 
 A. F. Izmaylov, J. Bloino, G. Zheng, J. L. Sonnenberg, M. Hada, 
 M. Ehara, K. Toyota, R. Fukuda, J. Hasegawa, M. Ishida, T. Nakajima, 
 Y. Honda, O. Kitao, H. Nakai, T. Vreven, J. A. Montgomery, Jr., 
 J. E. Peralta, F. Ogliaro, M. Bearpark, J. J. Heyd, E. Brothers, 
 K. N. Kudin, V. N. Staroverov, R. Kobayashi, J. Normand, 
 K. Raghavachari, A. Rendell, J. C. Burant, S. S. Iyengar, J. Tomasi, 
 M. Cossi, N. Rega, J. M. Millam, M. Klene, J. E. Knox, J. B. Cross, 
 V. Bakken, C. Adamo, J. Jaramillo, R. Gomperts, R. E. Stratmann, 
 O. Yazyev, A. J. Austin, R. Cammi, C. Pomelli, J. W. Ochterski, 
 R. L. Martin, K. Morokuma, V. G. Zakrzewski, G. A. Voth, 
 P. Salvador, J. J. Dannenberg, S. Dapprich, A. D. Daniels, 
 O. Farkas, J. B. Foresman, J. V. Ortiz, J. Cioslowski, 
 and D. J. Fox, Gaussian, Inc., Wallingford CT, 2009.
 
 ******************************************
 Gaussian 09:  EM64L-G09RevA.02 11-Jun-2009
                 8-Mar-2017 
 ******************************************
 %chk=TF2.chk
 %nprocshared=16
 Will use up to   16 processors via shared memory.
 --------------------------------------
 # opt M062X/6-311+G* geom=connectivity
 --------------------------------------
 1/14=-1,18=20,19=15,26=3,38=1,57=2/1,3;
 2/9=110,12=2,17=6,18=5,40=1/2;
 3/5=4,6=6,7=11,11=2,16=1,25=1,30=1,71=1,74=-55/1,2,3;
 4//1;
 5/5=2,38=5/2;
 6/7=2,8=2,9=2,10=2,28=1/1;
 7//1,2,3,16;
 1/14=-1,18=20,19=15/3(2);
 2/9=110/2;
 99//99;
 2/9=110/2;
 3/5=4,6=6,7=11,11=2,16=1,25=1,30=1,71=1,74=-55/1,2,3;
 4/5=5,16=3/1;
 5/5=2,38=5/2;
 7//1,2,3,16;
 1/14=-1,18=20,19=15/3(-5);
 2/9=110/2;
 6/7=2,8=2,9=2,10=2,19=2,28=1/1;
 99/9=1/99;
 -------------------
 Title Card Required
 -------------------
 Symbolic Z-matrix:
 Charge =  0 Multiplicity = 2
 N(PDBName=N1,ResName=TF2,ResNum=1) -0.328     0.532     1.567 
 S(PDBName=S1,ResName=TF2,ResNum=1) -1.288    -0.37      0.695 
 S(PDBName=S2,ResName=TF2,ResNum=1) -0.76      1.387     2.809 
 O(PDBName=O1,ResName=TF2,ResNum=1) -1.964    -1.41      1.412 
 O(PDBName=O2,ResName=TF2,ResNum=1) -2.031     0.35     -0.297 
 O(PDBName=O3,ResName=TF2,ResNum=1)  0.082     2.537     2.935 
 O(PDBName=O4,ResName=TF2,ResNum=1) -2.175     1.543     2.965 
 C(PDBName=C1,ResName=TF2,ResNum=1)  0.007    -1.23     -0.245 
 C(PDBName=C2,ResName=TF2,ResNum=1) -0.261     0.356     4.223 
 F(PDBName=F1,ResName=TF2,ResNum=1) -0.573    -2.07     -1.081 
 F(PDBName=F2,ResName=TF2,ResNum=1)  0.738    -0.399    -0.95 
 F(PDBName=F3,ResName=TF2,ResNum=1)  0.8      -1.922     0.54 
 F(PDBName=F4,ResName=TF2,ResNum=1)  1.03      0.108     4.197 
 F(PDBName=F5,ResName=TF2,ResNum=1) -0.9      -0.788     4.238 
 F(PDBName=F6,ResName=TF2,ResNum=1) -0.53      0.992     5.346 
 

 GradGradGradGradGradGradGradGradGradGradGradGradGradGradGradGradGradGrad
 Berny optimization.
 Initialization pass.
                           ----------------------------
                           !    Initial Parameters    !
                           ! (Angstroms and Degrees)  !
 --------------------------                            --------------------------
 ! Name  Definition              Value          Derivative Info.                !
 --------------------------------------------------------------------------------
 ! R1    R(1,2)                  1.5797         estimate D2E/DX2                !
 ! R2    R(1,3)                  1.5685         estimate D2E/DX2                !
 ! R3    R(2,4)                  1.4327         estimate D2E/DX2                !
 ! R4    R(2,5)                  1.4334         estimate D2E/DX2                !
 ! R5    R(2,8)                  1.8167         estimate D2E/DX2                !
 ! R6    R(3,6)                  1.4309         estimate D2E/DX2                !
 ! R7    R(3,7)                  1.4321         estimate D2E/DX2                !
 ! R8    R(3,9)                  1.8197         estimate D2E/DX2                !
 ! R9    R(8,10)                 1.3194         estimate D2E/DX2                !
 ! R10   R(8,11)                 1.3122         estimate D2E/DX2                !
 ! R11   R(8,12)                 1.313          estimate D2E/DX2                !
 ! R12   R(9,13)                 1.3149         estimate D2E/DX2                !
 ! R13   R(9,14)                 1.3105         estimate D2E/DX2                !
 ! R14   R(9,15)                 1.3183         estimate D2E/DX2                !
 ! A1    A(2,1,3)              125.5178         estimate D2E/DX2                !
 ! A2    A(1,2,4)              115.148          estimate D2E/DX2                !
 ! A3    A(1,2,5)              114.2183         estimate D2E/DX2                !
 ! A4    A(1,2,8)               97.0494         estimate D2E/DX2                !
 ! A5    A(4,2,5)              117.8009         estimate D2E/DX2                !
 ! A6    A(4,2,8)              104.5756         estimate D2E/DX2                !
 ! A7    A(5,2,8)              104.4304         estimate D2E/DX2                !
 ! A8    A(1,3,6)              110.2284         estimate D2E/DX2                !
 ! A9    A(1,3,7)              114.6938         estimate D2E/DX2                !
 ! A10   A(1,3,9)              103.3516         estimate D2E/DX2                !
 ! A11   A(6,3,7)              118.9662         estimate D2E/DX2                !
 ! A12   A(6,3,9)              103.0364         estimate D2E/DX2                !
 ! A13   A(7,3,9)              104.3603         estimate D2E/DX2                !
 ! A14   A(2,8,10)             108.4138         estimate D2E/DX2                !
 ! A15   A(2,8,11)             112.0434         estimate D2E/DX2                !
 ! A16   A(2,8,12)             111.7574         estimate D2E/DX2                !
 ! A17   A(10,8,11)            107.9168         estimate D2E/DX2                !
 ! A18   A(10,8,12)            107.9854         estimate D2E/DX2                !
 ! A19   A(11,8,12)            108.5735         estimate D2E/DX2                !
 ! A20   A(3,9,13)             111.1457         estimate D2E/DX2                !
 ! A21   A(3,9,14)             111.7025         estimate D2E/DX2                !
 ! A22   A(3,9,15)             109.4286         estimate D2E/DX2                !
 ! A23   A(13,9,14)            108.321          estimate D2E/DX2                !
 ! A24   A(13,9,15)            107.9496         estimate D2E/DX2                !
 ! A25   A(14,9,15)            108.1741         estimate D2E/DX2                !
 ! D1    D(3,1,2,4)            -59.186          estimate D2E/DX2                !
 ! D2    D(3,1,2,5)             81.7211         estimate D2E/DX2                !
 ! D3    D(3,1,2,8)           -168.9521         estimate D2E/DX2                !
 ! D4    D(2,1,3,6)           -150.4275         estimate D2E/DX2                !
 ! D5    D(2,1,3,7)            -12.9075         estimate D2E/DX2                !
 ! D6    D(2,1,3,9)            100.0283         estimate D2E/DX2                !
 ! D7    D(1,2,8,10)          -179.7274         estimate D2E/DX2                !
 ! D8    D(1,2,8,11)           -60.7404         estimate D2E/DX2                !
 ! D9    D(1,2,8,12)            61.3733         estimate D2E/DX2                !
 ! D10   D(4,2,8,10)            61.94           estimate D2E/DX2                !
 ! D11   D(4,2,8,11)          -179.073          estimate D2E/DX2                !
 ! D12   D(4,2,8,12)           -56.9593         estimate D2E/DX2                !
 ! D13   D(5,2,8,10)           -62.429          estimate D2E/DX2                !
 ! D14   D(5,2,8,11)            56.558          estimate D2E/DX2                !
 ! D15   D(5,2,8,12)           178.6717         estimate D2E/DX2                !
 ! D16   D(1,3,9,13)            58.644          estimate D2E/DX2                !
 ! D17   D(1,3,9,14)           -62.4662         estimate D2E/DX2                !
 ! D18   D(1,3,9,15)           177.7749         estimate D2E/DX2                !
 ! D19   D(6,3,9,13)           -56.1731         estimate D2E/DX2                !
 ! D20   D(6,3,9,14)          -177.2833         estimate D2E/DX2                !
 ! D21   D(6,3,9,15)            62.9578         estimate D2E/DX2                !
 ! D22   D(7,3,9,13)           178.9081         estimate D2E/DX2                !
 ! D23   D(7,3,9,14)            57.7978         estimate D2E/DX2                !
 ! D24   D(7,3,9,15)           -61.9611         estimate D2E/DX2                !
 --------------------------------------------------------------------------------
 Trust Radius=3.00D-01 FncErr=1.00D-07 GrdErr=1.00D-06
 Number of steps in this run=  73 maximum allowed number of steps= 100.
 GradGradGradGradGradGradGradGradGradGradGradGradGradGradGradGradGradGrad

                          Input orientation:                          
 ---------------------------------------------------------------------
 Center     Atomic      Atomic             Coordinates (Angstroms)
 Number     Number       Type             X           Y           Z
 ---------------------------------------------------------------------
      1          7           0       -0.328000    0.532000    1.567000
      2         16           0       -1.288000   -0.370000    0.695000
      3         16           0       -0.760000    1.387000    2.809000
      4          8           0       -1.964000   -1.410000    1.412000
      5          8           0       -2.031000    0.350000   -0.297000
      6          8           0        0.082000    2.537000    2.935000
      7          8           0       -2.175000    1.543000    2.965000
      8          6           0        0.007000   -1.230000   -0.245000
      9          6           0       -0.261000    0.356000    4.223000
     10          9           0       -0.573000   -2.070000   -1.081000
     11          9           0        0.738000   -0.399000   -0.950000
     12          9           0        0.800000   -1.922000    0.540000
     13          9           0        1.030000    0.108000    4.197000
     14          9           0       -0.900000   -0.788000    4.238000
     15          9           0       -0.530000    0.992000    5.346000
 ---------------------------------------------------------------------
                    Distance matrix (angstroms):
                    1          2          3          4          5
     1  N    0.000000
     2  S    1.579743   0.000000
     3  S    1.568507   2.799076   0.000000
     4  O    2.543990   1.432712   3.350289   0.000000
     5  O    2.531369   1.433357   3.512555   2.454133   0.000000
     6  O    2.461615   3.917288   1.430853   4.699410   4.437743
     7  O    2.527436   3.098264   1.432095   3.343133   3.476295
     8  C    2.549552   1.816652   4.094373   2.581257   2.579253
     9  C    2.662668   3.745476   1.819714   3.731044   4.854208
    10  F    3.720529   2.560352   5.207487   2.930108   2.932033
    11  F    2.887630   2.609893   4.423108   3.728534   2.941899
    12  F    2.889503   2.606237   4.304816   2.943166   3.725200
    13  F    2.990124   4.226773   2.601247   4.361718   5.442823
    14  F    3.033781   3.588609   2.606198   3.083060   4.810450
    15  F    3.812249   4.905243   2.577847   4.827247   5.874403
                    6          7          8          9         10
     6  O    0.000000
     7  O    2.466371   0.000000
     8  C    4.930346   4.770194   0.000000
     9  C    2.556043   2.579715   4.748710   0.000000
    10  F    6.146684   5.655996   1.319430   5.840825   0.000000
    11  F    4.913620   5.252062   1.312230   5.322401   2.127939
    12  F    5.112165   5.170829   1.312988   4.458643   2.129477
    13  F    2.896789   3.721434   4.750593   1.314862   5.930479
    14  F    3.703749   2.946136   4.595139   1.310451   5.481078
    15  F    2.928223   2.945978   6.040276   1.318327   7.119271
                   11         12         13         14         15
    11  F    0.000000
    12  F    2.131542   0.000000
    13  F    5.180147   4.188968   0.000000
    14  F    5.454329   4.225063   2.128238   0.000000
    15  F    6.571326   5.775633   2.129614   2.129076   0.000000
 Stoichiometry    C2F6NO4S2(2)
 Framework group  C1[X(C2F6NO4S2)]
 Deg. of freedom    39
 Full point group                 C1      NOp   1
 Largest Abelian subgroup         C1      NOp   1
 Largest concise Abelian subgroup C1      NOp   1
                         Standard orientation:                         
 ---------------------------------------------------------------------
 Center     Atomic      Atomic             Coordinates (Angstroms)
 Number     Number       Type             X           Y           Z
 ---------------------------------------------------------------------
      1          7           0       -0.065540   -0.293253    0.583499
      2         16           0       -1.233410   -0.575561   -0.442156
      3         16           0        1.424469   -0.754178    0.417263
      4          8           0       -1.023534   -0.057729   -1.761423
      5          8           0       -1.820857   -1.877343   -0.320573
      6          8           0        2.023394   -0.964137    1.699662
      7          8           0        1.639446   -1.722675   -0.615546
      8          6           0       -2.456783    0.544222    0.299242
      9          6           0        2.262754    0.743652   -0.187007
     10          9           0       -3.567690    0.475849   -0.409354
     11          9           0       -2.745018    0.210086    1.535050
     12          9           0       -2.045009    1.790921    0.288285
     13          9           0        2.126926    1.738440    0.661998
     14          9           0        1.792914    1.126611   -1.348848
     15          9           0        3.551035    0.499918   -0.324528
 ---------------------------------------------------------------------
 Rotational constants (GHZ):      0.9586673      0.3385542      0.3182672
 Standard basis: 6-311+G(d) (5D, 7F)
 There are   346 symmetry adapted basis functions of A   symmetry.
 Integral buffers will be    131072 words long.
 Raffenetti 2 integral format.
 Two-electron integral symmetry is turned on.
   346 basis functions,   568 primitive gaussians,   361 cartesian basis functions
    69 alpha electrons       68 beta electrons
       nuclear repulsion energy      1603.7862681149 Hartrees.
 NAtoms=   15 NActive=   15 NUniq=   15 SFac= 7.50D-01 NAtFMM=   80 NAOKFM=F Big=F
 One-electron integrals computed using PRISM.
 PrsmSu:  requested number of processors reduced to:  10 ShMem   1 Linda.
 NBasis=   346 RedAO= T  NBF=   346
 NBsUse=   346 1.00D-06 NBFU=   346
 Harris functional with IExCor= 1009 diagonalized for initial guess.
 ExpMin= 4.05D-02 ExpMax= 9.34D+04 ExpMxC= 3.17D+03 IAcc=2 IRadAn=         0 AccDes= 0.00D+00
 HarFok:  IExCor= 1009 AccDes= 0.00D+00 IRadAn=         0 IDoV= 1
 ScaDFX=  1.000000  1.000000  1.000000  1.000000
 FoFCou: FMM=F IPFlag=           0 FMFlag=      100000 FMFlg1=           0
         NFxFlg=           0 DoJE=T BraDBF=F KetDBF=T FulRan=T
         Omega=  0.000000  0.000000  1.000000  0.000000  0.000000 ICntrl=     500 IOpCl=  0
         NMat0=    1 NMatS0=    1 NMatT0=    0 NMatD0=    1 NMtDS0=    0 NMtDT0=    0
         I1Cent=           4 NGrid=           0.
 Petite list used in FoFCou.
 Initial guess orbital symmetries:
 Alpha Orbitals:
       Occupied  (A) (A) (A) (A) (A) (A) (A) (A) (A) (A) (A) (A)
                 (A) (A) (A) (A) (A) (A) (A) (A) (A) (A) (A) (A)
                 (A) (A) (A) (A) (A) (A) (A) (A) (A) (A) (A) (A)
                 (A) (A) (A) (A) (A) (A) (A) (A) (A) (A) (A) (A)
                 (A) (A) (A) (A) (A) (A) (A) (A) (A) (A) (A) (A)
                 (A) (A) (A) (A) (A) (A) (A) (A) (A)
       Virtual   (A) (A) (A) (A) (A) (A) (A) (A) (A) (A) (A) (A)
                 (A) (A) (A) (A) (A) (A) (A) (A) (A) (A) (A) (A)
                 (A) (A) (A) (A) (A) (A) (A) (A) (A) (A) (A) (A)
                 (A) (A) (A) (A) (A) (A) (A) (A) (A) (A) (A) (A)
                 (A) (A) (A) (A) (A) (A) (A) (A) (A) (A) (A) (A)
                 (A) (A) (A) (A) (A) (A) (A) (A) (A) (A) (A) (A)
                 (A) (A) (A) (A) (A) (A) (A) (A) (A) (A) (A) (A)
                 (A) (A) (A) (A) (A) (A) (A) (A) (A) (A) (A) (A)
                 (A) (A) (A) (A) (A) (A) (A) (A) (A) (A) (A) (A)
                 (A) (A) (A) (A) (A) (A) (A) (A) (A) (A) (A) (A)
                 (A) (A) (A) (A) (A) (A) (A) (A) (A) (A) (A) (A)
                 (A) (A) (A) (A) (A) (A) (A) (A) (A) (A) (A) (A)
                 (A) (A) (A) (A) (A) (A) (A) (A) (A) (A) (A) (A)
                 (A) (A) (A) (A) (A) (A) (A) (A) (A) (A) (A) (A)
                 (A) (A) (A) (A) (A) (A) (A) (A) (A) (A) (A) (A)
                 (A) (A) (A) (A) (A) (A) (A) (A) (A) (A) (A) (A)
                 (A) (A) (A) (A) (A) (A) (A) (A) (A) (A) (A) (A)
                 (A) (A) (A) (A) (A) (A) (A) (A) (A) (A) (A) (A)
                 (A) (A) (A) (A) (A) (A) (A) (A) (A) (A) (A) (A)
                 (A) (A) (A) (A) (A) (A) (A) (A) (A) (A) (A) (A)
                 (A) (A) (A) (A) (A) (A) (A) (A) (A) (A) (A) (A)
                 (A) (A) (A) (A) (A) (A) (A) (A) (A) (A) (A) (A)
                 (A) (A) (A) (A) (A) (A) (A) (A) (A) (A) (A) (A)
                 (A)
 Beta  Orbitals:
       Occupied  (A) (A) (A) (A) (A) (A) (A) (A) (A) (A) (A) (A)
                 (A) (A) (A) (A) (A) (A) (A) (A) (A) (A) (A) (A)
                 (A) (A) (A) (A) (A) (A) (A) (A) (A) (A) (A) (A)
                 (A) (A) (A) (A) (A) (A) (A) (A) (A) (A) (A) (A)
                 (A) (A) (A) (A) (A) (A) (A) (A) (A) (A) (A) (A)
                 (A) (A) (A) (A) (A) (A) (A) (A)
       Virtual   (A) (A) (A) (A) (A) (A) (A) (A) (A) (A) (A) (A)
                 (A) (A) (A) (A) (A) (A) (A) (A) (A) (A) (A) (A)
                 (A) (A) (A) (A) (A) (A) (A) (A) (A) (A) (A) (A)
                 (A) (A) (A) (A) (A) (A) (A) (A) (A) (A) (A) (A)
                 (A) (A) (A) (A) (A) (A) (A) (A) (A) (A) (A) (A)
                 (A) (A) (A) (A) (A) (A) (A) (A) (A) (A) (A) (A)
                 (A) (A) (A) (A) (A) (A) (A) (A) (A) (A) (A) (A)
                 (A) (A) (A) (A) (A) (A) (A) (A) (A) (A) (A) (A)
                 (A) (A) (A) (A) (A) (A) (A) (A) (A) (A) (A) (A)
                 (A) (A) (A) (A) (A) (A) (A) (A) (A) (A) (A) (A)
                 (A) (A) (A) (A) (A) (A) (A) (A) (A) (A) (A) (A)
                 (A) (A) (A) (A) (A) (A) (A) (A) (A) (A) (A) (A)
                 (A) (A) (A) (A) (A) (A) (A) (A) (A) (A) (A) (A)
                 (A) (A) (A) (A) (A) (A) (A) (A) (A) (A) (A) (A)
                 (A) (A) (A) (A) (A) (A) (A) (A) (A) (A) (A) (A)
                 (A) (A) (A) (A) (A) (A) (A) (A) (A) (A) (A) (A)
                 (A) (A) (A) (A) (A) (A) (A) (A) (A) (A) (A) (A)
                 (A) (A) (A) (A) (A) (A) (A) (A) (A) (A) (A) (A)
                 (A) (A) (A) (A) (A) (A) (A) (A) (A) (A) (A) (A)
                 (A) (A) (A) (A) (A) (A) (A) (A) (A) (A) (A) (A)
                 (A) (A) (A) (A) (A) (A) (A) (A) (A) (A) (A) (A)
                 (A) (A) (A) (A) (A) (A) (A) (A) (A) (A) (A) (A)
                 (A) (A) (A) (A) (A) (A) (A) (A) (A) (A) (A) (A)
                 (A) (A)
 The electronic state of the initial guess is 2-A.
 Initial guess <Sx>= 0.0000 <Sy>= 0.0000 <Sz>= 0.5000 <S**2>= 0.7500 S= 0.5000
 Requested convergence on RMS density matrix=1.00D-08 within 128 cycles.
 Requested convergence on MAX density matrix=1.00D-06.
 Requested convergence on             energy=1.00D-06.
 No special actions if energy rises.
 Restarting incremental Fock formation.
 SCF Done:  E(UM062X) =  -1826.96385507     A.U. after   27 cycles
             Convg  =    0.5169D-08             -V/T =  2.0015
 <Sx>= 0.0000 <Sy>= 0.0000 <Sz>= 0.5000 <S**2>= 0.7637 S= 0.5068
 <L.S>= 0.000000000000E+00
 Annihilation of the first spin contaminant:
 S**2 before annihilation     0.7637,   after     0.7501

 **********************************************************************

            Population analysis using the SCF density.

 **********************************************************************

 Orbital symmetries:
 Alpha Orbitals:
       Occupied  (A) (A) (A) (A) (A) (A) (A) (A) (A) (A) (A) (A)
                 (A) (A) (A) (A) (A) (A) (A) (A) (A) (A) (A) (A)
                 (A) (A) (A) (A) (A) (A) (A) (A) (A) (A) (A) (A)
                 (A) (A) (A) (A) (A) (A) (A) (A) (A) (A) (A) (A)
                 (A) (A) (A) (A) (A) (A) (A) (A) (A) (A) (A) (A)
                 (A) (A) (A) (A) (A) (A) (A) (A) (A)
       Virtual   (A) (A) (A) (A) (A) (A) (A) (A) (A) (A) (A) (A)
                 (A) (A) (A) (A) (A) (A) (A) (A) (A) (A) (A) (A)
                 (A) (A) (A) (A) (A) (A) (A) (A) (A) (A) (A) (A)
                 (A) (A) (A) (A) (A) (A) (A) (A) (A) (A) (A) (A)
                 (A) (A) (A) (A) (A) (A) (A) (A) (A) (A) (A) (A)
                 (A) (A) (A) (A) (A) (A) (A) (A) (A) (A) (A) (A)
                 (A) (A) (A) (A) (A) (A) (A) (A) (A) (A) (A) (A)
                 (A) (A) (A) (A) (A) (A) (A) (A) (A) (A) (A) (A)
                 (A) (A) (A) (A) (A) (A) (A) (A) (A) (A) (A) (A)
                 (A) (A) (A) (A) (A) (A) (A) (A) (A) (A) (A) (A)
                 (A) (A) (A) (A) (A) (A) (A) (A) (A) (A) (A) (A)
                 (A) (A) (A) (A) (A) (A) (A) (A) (A) (A) (A) (A)
                 (A) (A) (A) (A) (A) (A) (A) (A) (A) (A) (A) (A)
                 (A) (A) (A) (A) (A) (A) (A) (A) (A) (A) (A) (A)
                 (A) (A) (A) (A) (A) (A) (A) (A) (A) (A) (A) (A)
                 (A) (A) (A) (A) (A) (A) (A) (A) (A) (A) (A) (A)
                 (A) (A) (A) (A) (A) (A) (A) (A) (A) (A) (A) (A)
                 (A) (A) (A) (A) (A) (A) (A) (A) (A) (A) (A) (A)
                 (A) (A) (A) (A) (A) (A) (A) (A) (A) (A) (A) (A)
                 (A) (A) (A) (A) (A) (A) (A) (A) (A) (A) (A) (A)
                 (A) (A) (A) (A) (A) (A) (A) (A) (A) (A) (A) (A)
                 (A) (A) (A) (A) (A) (A) (A) (A) (A) (A) (A) (A)
                 (A) (A) (A) (A) (A) (A) (A) (A) (A) (A) (A) (A)
                 (A)
 Beta  Orbitals:
       Occupied  (A) (A) (A) (A) (A) (A) (A) (A) (A) (A) (A) (A)
                 (A) (A) (A) (A) (A) (A) (A) (A) (A) (A) (A) (A)
                 (A) (A) (A) (A) (A) (A) (A) (A) (A) (A) (A) (A)
                 (A) (A) (A) (A) (A) (A) (A) (A) (A) (A) (A) (A)
                 (A) (A) (A) (A) (A) (A) (A) (A) (A) (A) (A) (A)
                 (A) (A) (A) (A) (A) (A) (A) (A)
       Virtual   (A) (A) (A) (A) (A) (A) (A) (A) (A) (A) (A) (A)
                 (A) (A) (A) (A) (A) (A) (A) (A) (A) (A) (A) (A)
                 (A) (A) (A) (A) (A) (A) (A) (A) (A) (A) (A) (A)
                 (A) (A) (A) (A) (A) (A) (A) (A) (A) (A) (A) (A)
                 (A) (A) (A) (A) (A) (A) (A) (A) (A) (A) (A) (A)
                 (A) (A) (A) (A) (A) (A) (A) (A) (A) (A) (A) (A)
                 (A) (A) (A) (A) (A) (A) (A) (A) (A) (A) (A) (A)
                 (A) (A) (A) (A) (A) (A) (A) (A) (A) (A) (A) (A)
                 (A) (A) (A) (A) (A) (A) (A) (A) (A) (A) (A) (A)
                 (A) (A) (A) (A) (A) (A) (A) (A) (A) (A) (A) (A)
                 (A) (A) (A) (A) (A) (A) (A) (A) (A) (A) (A) (A)
                 (A) (A) (A) (A) (A) (A) (A) (A) (A) (A) (A) (A)
                 (A) (A) (A) (A) (A) (A) (A) (A) (A) (A) (A) (A)
                 (A) (A) (A) (A) (A) (A) (A) (A) (A) (A) (A) (A)
                 (A) (A) (A) (A) (A) (A) (A) (A) (A) (A) (A) (A)
                 (A) (A) (A) (A) (A) (A) (A) (A) (A) (A) (A) (A)
                 (A) (A) (A) (A) (A) (A) (A) (A) (A) (A) (A) (A)
                 (A) (A) (A) (A) (A) (A) (A) (A) (A) (A) (A) (A)
                 (A) (A) (A) (A) (A) (A) (A) (A) (A) (A) (A) (A)
                 (A) (A) (A) (A) (A) (A) (A) (A) (A) (A) (A) (A)
                 (A) (A) (A) (A) (A) (A) (A) (A) (A) (A) (A) (A)
                 (A) (A) (A) (A) (A) (A) (A) (A) (A) (A) (A) (A)
                 (A) (A) (A) (A) (A) (A) (A) (A) (A) (A) (A) (A)
                 (A) (A)
 The electronic state is 2-A.
 Alpha  occ. eigenvalues --  -90.21726 -90.19523 -25.34388 -25.34348 -25.34117
 Alpha  occ. eigenvalues --  -25.34033 -25.33888 -25.33665 -19.74834 -19.73436
 Alpha  occ. eigenvalues --  -19.68906 -19.68837 -14.91175 -10.87573 -10.87162
 Alpha  occ. eigenvalues --   -8.55973  -8.53841  -6.48207  -6.48138  -6.48047
 Alpha  occ. eigenvalues --   -6.46128  -6.45966  -6.45912  -1.55090  -1.54663
 Alpha  occ. eigenvalues --   -1.45011  -1.44695  -1.44583  -1.44246  -1.37861
 Alpha  occ. eigenvalues --   -1.33772  -1.25441  -1.21079  -1.16936  -0.96419
 Alpha  occ. eigenvalues --   -0.91319  -0.86784  -0.81306  -0.78979  -0.76701
 Alpha  occ. eigenvalues --   -0.76402  -0.76209  -0.76037  -0.71919  -0.67641
 Alpha  occ. eigenvalues --   -0.66821  -0.64933  -0.63877  -0.63633  -0.63397
 Alpha  occ. eigenvalues --   -0.63232  -0.61822  -0.61132  -0.59878  -0.59781
 Alpha  occ. eigenvalues --   -0.59398  -0.59141  -0.58492  -0.57447  -0.56976
 Alpha  occ. eigenvalues --   -0.54724  -0.52843  -0.51328  -0.50132  -0.48328
 Alpha  occ. eigenvalues --   -0.46855  -0.46772  -0.44601  -0.44054
 Alpha virt. eigenvalues --   -0.01451   0.00330   0.00924   0.01873   0.02147
 Alpha virt. eigenvalues --    0.02743   0.03149   0.04100   0.04744   0.05494
 Alpha virt. eigenvalues --    0.05841   0.06501   0.07000   0.07837   0.08473
 Alpha virt. eigenvalues --    0.08610   0.09016   0.09508   0.09843   0.10709
 Alpha virt. eigenvalues --    0.11192   0.13512   0.14016   0.14727   0.16291
 Alpha virt. eigenvalues --    0.17744   0.18652   0.19067   0.20307   0.20972
 Alpha virt. eigenvalues --    0.21159   0.22231   0.22669   0.23005   0.23536
 Alpha virt. eigenvalues --    0.23604   0.23913   0.24283   0.24992   0.25457
 Alpha virt. eigenvalues --    0.26169   0.27533   0.28208   0.28555   0.29263
 Alpha virt. eigenvalues --    0.29586   0.30190   0.30639   0.30764   0.30944
 Alpha virt. eigenvalues --    0.31523   0.31824   0.32504   0.32795   0.34128
 Alpha virt. eigenvalues --    0.34563   0.35327   0.35485   0.35881   0.36269
 Alpha virt. eigenvalues --    0.37366   0.37889   0.38954   0.39339   0.39984
 Alpha virt. eigenvalues --    0.40254   0.40997   0.42220   0.42610   0.44103
 Alpha virt. eigenvalues --    0.44831   0.45942   0.46920   0.47738   0.48026
 Alpha virt. eigenvalues --    0.50024   0.51135   0.52564   0.53821   0.54647
 Alpha virt. eigenvalues --    0.58044   0.59162   0.59291   0.60542   0.67729
 Alpha virt. eigenvalues --    0.69047   0.78818   0.79930   0.80421   0.80720
 Alpha virt. eigenvalues --    0.83563   0.84562   0.87941   0.91281   0.93420
 Alpha virt. eigenvalues --    0.96291   0.98033   1.00737   1.02959   1.03772
 Alpha virt. eigenvalues --    1.06011   1.07545   1.08745   1.12692   1.13130
 Alpha virt. eigenvalues --    1.13857   1.16459   1.16576   1.17348   1.17912
 Alpha virt. eigenvalues --    1.18920   1.19157   1.20490   1.21006   1.23031
 Alpha virt. eigenvalues --    1.23881   1.25487   1.26302   1.27895   1.30598
 Alpha virt. eigenvalues --    1.38405   1.39566   1.40534   1.41914   1.42167
 Alpha virt. eigenvalues --    1.42727   1.43613   1.45334   1.46539   1.48055
 Alpha virt. eigenvalues --    1.48632   1.49100   1.49322   1.50248   1.51214
 Alpha virt. eigenvalues --    1.51818   1.52385   1.53932   1.58497   1.61148
 Alpha virt. eigenvalues --    1.68245   1.68968   1.70753   1.73402   1.77578
 Alpha virt. eigenvalues --    1.79980   1.82060   1.84927   1.86930   1.87406
 Alpha virt. eigenvalues --    1.90087   1.91010   1.92448   1.96197   1.96443
 Alpha virt. eigenvalues --    1.98786   2.00869   2.03465   2.09874   2.13504
 Alpha virt. eigenvalues --    2.15892   2.17337   2.19657   2.51787   2.58310
 Alpha virt. eigenvalues --    2.77526   2.78843   2.79454   2.80027   2.82896
 Alpha virt. eigenvalues --    2.84180   2.84788   2.85189   2.87164   2.88577
 Alpha virt. eigenvalues --    2.90912   2.94336   2.94775   2.98016   2.99376
 Alpha virt. eigenvalues --    2.99630   3.04100   3.08007   3.09138   3.13488
 Alpha virt. eigenvalues --    3.16689   3.19592   3.47195   3.52227   3.59866
 Alpha virt. eigenvalues --    3.63907   3.73900   3.74459   3.77902   3.78249
 Alpha virt. eigenvalues --    3.78397   3.78651   3.78910   3.79387   3.81217
 Alpha virt. eigenvalues --    3.81382   3.81829   3.82139   3.84524   3.84681
 Alpha virt. eigenvalues --    3.87287   3.90880   3.92382   3.92832   3.95202
 Alpha virt. eigenvalues --    3.99808   4.18588   4.19261   4.24028   4.25788
 Alpha virt. eigenvalues --    4.26451   4.26462   4.27964   4.43435   4.43486
 Alpha virt. eigenvalues --    4.95132   4.95994   4.96063   4.96379   5.04297
 Alpha virt. eigenvalues --    5.05155   5.08258   5.08713   5.09901   5.13255
 Alpha virt. eigenvalues --    5.16840   5.19800   5.20021   5.23973   5.35520
 Alpha virt. eigenvalues --    5.40427   6.37546   6.38465   6.40389   6.40598
 Alpha virt. eigenvalues --    6.41892   6.44796   6.46434   6.47289   6.47483
 Alpha virt. eigenvalues --    6.48270   6.49310   6.50581   6.51726   6.52998
 Alpha virt. eigenvalues --    6.85399   6.86238   6.87176   6.87429   8.25073
 Alpha virt. eigenvalues --    8.30569  17.49088  17.50203  17.54219  17.59478
 Alpha virt. eigenvalues --   17.62602  17.67588  23.51919  23.52378  35.39755
 Alpha virt. eigenvalues --   49.87203  49.91725  49.92842  49.96986  66.82890
 Alpha virt. eigenvalues --   66.83657  66.83928  66.84930  66.88260  66.88856
 Alpha virt. eigenvalues --  189.50847 189.56994
  Beta  occ. eigenvalues --  -90.21780 -90.19559 -25.34392 -25.34348 -25.34120
  Beta  occ. eigenvalues --  -25.34020 -25.33832 -25.33655 -19.74286 -19.73024
  Beta  occ. eigenvalues --  -19.68876 -19.68760 -14.90483 -10.87581 -10.87095
  Beta  occ. eigenvalues --   -8.55989  -8.53864  -6.48274  -6.48204  -6.48074
  Beta  occ. eigenvalues --   -6.46165  -6.45989  -6.45963  -1.55097  -1.54577
  Beta  occ. eigenvalues --   -1.45017  -1.44702  -1.44524  -1.44142  -1.36856
  Beta  occ. eigenvalues --   -1.33332  -1.23901  -1.20848  -1.14489  -0.95852
  Beta  occ. eigenvalues --   -0.90932  -0.86396  -0.81093  -0.78561  -0.76697
  Beta  occ. eigenvalues --   -0.76346  -0.76118  -0.75858  -0.70893  -0.67032
  Beta  occ. eigenvalues --   -0.64962  -0.64520  -0.63843  -0.63236  -0.63106
  Beta  occ. eigenvalues --   -0.63035  -0.60972  -0.60790  -0.59841  -0.59625
  Beta  occ. eigenvalues --   -0.59126  -0.59020  -0.57439  -0.56948  -0.55674
  Beta  occ. eigenvalues --   -0.50899  -0.50017  -0.49465  -0.47812  -0.46563
  Beta  occ. eigenvalues --   -0.46471  -0.44145  -0.43220
  Beta virt. eigenvalues --   -0.27736  -0.01341   0.00605   0.01398   0.02076
  Beta virt. eigenvalues --    0.02354   0.02931   0.03367   0.04210   0.04968
  Beta virt. eigenvalues --    0.05579   0.06041   0.06555   0.07065   0.07909
  Beta virt. eigenvalues --    0.08544   0.08775   0.09298   0.09597   0.10415
  Beta virt. eigenvalues --    0.10837   0.11569   0.13616   0.14203   0.15106
  Beta virt. eigenvalues --    0.16387   0.17880   0.18732   0.19325   0.20691
  Beta virt. eigenvalues --    0.21266   0.21605   0.22433   0.22839   0.23065
  Beta virt. eigenvalues --    0.23693   0.23841   0.24263   0.24485   0.25076
  Beta virt. eigenvalues --    0.25488   0.26361   0.27616   0.28253   0.28638
  Beta virt. eigenvalues --    0.29335   0.29656   0.30255   0.30650   0.30791
  Beta virt. eigenvalues --    0.30993   0.31579   0.31825   0.32527   0.32817
  Beta virt. eigenvalues --    0.34157   0.34611   0.35391   0.35510   0.35913
  Beta virt. eigenvalues --    0.36319   0.37465   0.37958   0.38987   0.39399
  Beta virt. eigenvalues --    0.39930   0.40213   0.41010   0.42234   0.42618
  Beta virt. eigenvalues --    0.44120   0.44854   0.45966   0.46962   0.47800
  Beta virt. eigenvalues --    0.48081   0.50100   0.51128   0.52657   0.53940
  Beta virt. eigenvalues --    0.54766   0.58237   0.59339   0.59488   0.60943
  Beta virt. eigenvalues --    0.67779   0.69211   0.79059   0.79984   0.80499
  Beta virt. eigenvalues --    0.80831   0.83642   0.84526   0.87960   0.91383
  Beta virt. eigenvalues --    0.94223   0.96709   0.98550   1.01390   1.02964
  Beta virt. eigenvalues --    1.03863   1.05988   1.07649   1.08944   1.13385
  Beta virt. eigenvalues --    1.13702   1.14169   1.16612   1.17253   1.17780
  Beta virt. eigenvalues --    1.18336   1.19419   1.19564   1.20792   1.21583
  Beta virt. eigenvalues --    1.23131   1.24190   1.25757   1.26496   1.28818
  Beta virt. eigenvalues --    1.30871   1.38486   1.39631   1.40610   1.42014
  Beta virt. eigenvalues --    1.42309   1.42773   1.43643   1.45416   1.46626
  Beta virt. eigenvalues --    1.48172   1.48722   1.49163   1.49389   1.50301
  Beta virt. eigenvalues --    1.51320   1.51966   1.52444   1.54075   1.58822
  Beta virt. eigenvalues --    1.61473   1.68377   1.69035   1.71018   1.73579
  Beta virt. eigenvalues --    1.77599   1.80211   1.82339   1.84864   1.87087
  Beta virt. eigenvalues --    1.87803   1.89657   1.90709   1.92538   1.96163
  Beta virt. eigenvalues --    1.96394   1.98701   2.00884   2.03419   2.11085
  Beta virt. eigenvalues --    2.14585   2.16890   2.17814   2.20225   2.53041
  Beta virt. eigenvalues --    2.59310   2.78263   2.79492   2.80670   2.81208
  Beta virt. eigenvalues --    2.83605   2.85173   2.85321   2.85731   2.87328
  Beta virt. eigenvalues --    2.88784   2.91566   2.94535   2.95599   2.98168
  Beta virt. eigenvalues --    2.99477   2.99855   3.04364   3.08117   3.09779
  Beta virt. eigenvalues --    3.13699   3.17350   3.19715   3.47795   3.52411
  Beta virt. eigenvalues --    3.60578   3.64021   3.73924   3.74486   3.77923
  Beta virt. eigenvalues --    3.78330   3.78444   3.78715   3.78966   3.79416
  Beta virt. eigenvalues --    3.81228   3.81399   3.81864   3.82205   3.84643
  Beta virt. eigenvalues --    3.85063   3.88978   3.91060   3.92370   3.92882
  Beta virt. eigenvalues --    3.96996   4.01060   4.18623   4.19321   4.24519
  Beta virt. eigenvalues --    4.25788   4.26470   4.26498   4.28257   4.43456
  Beta virt. eigenvalues --    4.43537   4.95151   4.96069   4.96084   4.96440
  Beta virt. eigenvalues --    5.05624   5.06721   5.08938   5.09362   5.10128
  Beta virt. eigenvalues --    5.13421   5.17088   5.20344   5.20595   5.24090
  Beta virt. eigenvalues --    5.35897   5.40512   6.37632   6.38471   6.40397
  Beta virt. eigenvalues --    6.40658   6.41892   6.44806   6.46441   6.47292
  Beta virt. eigenvalues --    6.47535   6.48378   6.49320   6.50610   6.51720
  Beta virt. eigenvalues --    6.53042   6.85413   6.86240   6.87188   6.87461
  Beta virt. eigenvalues --    8.25069   8.30581  17.48875  17.50093  17.53978
  Beta virt. eigenvalues --   17.59321  17.62254  17.67501  23.51929  23.52392
  Beta virt. eigenvalues --   35.39497  49.86633  49.91463  49.92503  49.96914
  Beta virt. eigenvalues --   66.82887  66.83657  66.83905  66.84927  66.88259
  Beta virt. eigenvalues --   66.88847 189.50779 189.56937
          Condensed to atoms (all electrons):
              1          2          3          4          5          6
     1  N   12.394231  -2.058327  -2.076494  -0.685940  -0.507909  -0.122547
     2  S   -2.058327  19.008289  -0.035811   0.401074  -0.203105   0.045537
     3  S   -2.076494  -0.035811  18.904061   0.058517  -0.096564  -0.764262
     4  O   -0.685940   0.401074   0.058517   9.072943  -0.298710   0.012470
     5  O   -0.507909  -0.203105  -0.096564  -0.298710   9.043368  -0.025020
     6  O   -0.122547   0.045537  -0.764262   0.012470  -0.025020   9.540987
     7  O   -0.563795  -0.129342   0.695766  -0.068147   0.027598  -0.678458
     8  C    0.619766  -1.036386  -0.042681  -0.547406  -0.095984   0.020171
     9  C    0.466254   0.034431  -0.989435  -0.052375   0.021765   0.025043
    10  F   -0.003097  -0.099996   0.009601   0.022178   0.010479  -0.000459
    11  F   -0.003357   0.016662   0.003904   0.005482   0.003455  -0.002500
    12  F   -0.002369  -0.001617   0.013106   0.002594   0.000267   0.002073
    13  F   -0.005828  -0.013183   0.047280  -0.004005   0.000849   0.004099
    14  F    0.015607  -0.010709   0.023178  -0.012762  -0.000306  -0.008344
    15  F    0.004043   0.016554  -0.137340   0.002573   0.000284  -0.012508
              7          8          9         10         11         12
     1  N   -0.563795   0.619766   0.466254  -0.003097  -0.003357  -0.002369
     2  S   -0.129342  -1.036386   0.034431  -0.099996   0.016662  -0.001617
     3  S    0.695766  -0.042681  -0.989435   0.009601   0.003904   0.013106
     4  O   -0.068147  -0.547406  -0.052375   0.022178   0.005482   0.002594
     5  O    0.027598  -0.095984   0.021765   0.010479   0.003455   0.000267
     6  O   -0.678458   0.020171   0.025043  -0.000459  -0.002500   0.002073
     7  O    9.154398  -0.000973  -0.446809   0.000573   0.001285  -0.000482
     8  C   -0.000973   6.304491   0.046997   0.275641   0.149356   0.192694
     9  C   -0.446809   0.046997   6.296926  -0.002035  -0.003062  -0.001279
    10  F    0.000573   0.275641  -0.002035   8.917812  -0.034252  -0.039976
    11  F    0.001285   0.149356  -0.003062  -0.034252   8.949866  -0.056787
    12  F   -0.000482   0.192694  -0.001279  -0.039976  -0.056787   8.934193
    13  F   -0.002842   0.006769   0.145436   0.000008  -0.000209   0.000233
    14  F    0.038788  -0.002776   0.107142   0.000071   0.000080  -0.001327
    15  F   -0.001367  -0.002338   0.359996   0.000006  -0.000010  -0.000078
             13         14         15
     1  N   -0.005828   0.015607   0.004043
     2  S   -0.013183  -0.010709   0.016554
     3  S    0.047280   0.023178  -0.137340
     4  O   -0.004005  -0.012762   0.002573
     5  O    0.000849  -0.000306   0.000284
     6  O    0.004099  -0.008344  -0.012508
     7  O   -0.002842   0.038788  -0.001367
     8  C    0.006769  -0.002776  -0.002338
     9  C    0.145436   0.107142   0.359996
    10  F    0.000008   0.000071   0.000006
    11  F   -0.000209   0.000080  -0.000010
    12  F    0.000233  -0.001327  -0.000078
    13  F    8.970747  -0.063614  -0.047219
    14  F   -0.063614   8.969056  -0.040145
    15  F   -0.047219  -0.040145   8.912484
 Mulliken atomic charges:
              1
     1  N   -0.470238
     2  S    0.065929
     3  S    0.387176
     4  O    0.091513
     5  O    0.119534
     6  O   -0.036282
     7  O   -0.026192
     8  C    0.112661
     9  C   -0.008994
    10  F   -0.056554
    11  F   -0.029914
    12  F   -0.041246
    13  F   -0.038521
    14  F   -0.013938
    15  F   -0.054935
 Sum of Mulliken atomic charges =   0.00000
 Mulliken charges with hydrogens summed into heavy atoms:
              1
     1  N   -0.470238
     2  S    0.065929
     3  S    0.387176
     4  O    0.091513
     5  O    0.119534
     6  O   -0.036282
     7  O   -0.026192
     8  C    0.112661
     9  C   -0.008994
    10  F   -0.056554
    11  F   -0.029914
    12  F   -0.041246
    13  F   -0.038521
    14  F   -0.013938
    15  F   -0.054935
 Sum of Mulliken charges with hydrogens summed into heavy atoms =   0.00000
          Atomic-Atomic Spin Densities.
              1          2          3          4          5          6
     1  N    0.223436   0.282334   0.026347   0.095304   0.091181   0.017384
     2  S    0.282334  -1.062026  -0.023893   0.054487   0.241231  -0.001549
     3  S    0.026347  -0.023893  -0.108289  -0.009962   0.007898   0.075845
     4  O    0.095304   0.054487  -0.009962   0.007381   0.084297   0.004549
     5  O    0.091181   0.241231   0.007898   0.084297  -0.105534  -0.005099
     6  O    0.017384  -0.001549   0.075845   0.004549  -0.005099  -0.073088
     7  O   -0.013410   0.018986  -0.002911   0.001327  -0.000253   0.036246
     8  C   -0.059336   0.133234  -0.004926   0.073787  -0.052375  -0.004265
     9  C   -0.017475   0.023555   0.009743   0.018382  -0.004452  -0.013038
    10  F    0.000150   0.003936  -0.000091  -0.004812   0.001052   0.000046
    11  F   -0.002390   0.002694   0.000725   0.000035   0.000186   0.000086
    12  F   -0.001836   0.003298   0.000007  -0.002118   0.002088   0.000038
    13  F   -0.001674   0.001577   0.000612   0.000220  -0.000106   0.003186
    14  F   -0.002566   0.003335  -0.000174   0.001460  -0.000408   0.002482
    15  F    0.001345  -0.001802  -0.007859   0.000456  -0.000134   0.001023
              7          8          9         10         11         12
     1  N   -0.013410  -0.059336  -0.017475   0.000150  -0.002390  -0.001836
     2  S    0.018986   0.133234   0.023555   0.003936   0.002694   0.003298
     3  S   -0.002911  -0.004926   0.009743  -0.000091   0.000725   0.000007
     4  O    0.001327   0.073787   0.018382  -0.004812   0.000035  -0.002118
     5  O   -0.000253  -0.052375  -0.004452   0.001052   0.000186   0.002088
     6  O    0.036246  -0.004265  -0.013038   0.000046   0.000086   0.000038
     7  O   -0.009914   0.000536  -0.012259  -0.000076  -0.000079  -0.000032
     8  C    0.000536  -0.090969  -0.005547   0.005863   0.004859   0.003228
     9  C   -0.012259  -0.005547   0.057426   0.000120  -0.000030   0.000486
    10  F   -0.000076   0.005863   0.000120  -0.005306   0.000191   0.000455
    11  F   -0.000079   0.004859  -0.000030   0.000191  -0.005291   0.001674
    12  F   -0.000032   0.003228   0.000486   0.000455   0.001674  -0.004738
    13  F   -0.000720  -0.000514  -0.000003  -0.000002  -0.000001  -0.000027
    14  F   -0.000872  -0.000235  -0.000565  -0.000009  -0.000005  -0.000022
    15  F    0.004166   0.000101  -0.017700   0.000000   0.000000   0.000011
             13         14         15
     1  N   -0.001674  -0.002566   0.001345
     2  S    0.001577   0.003335  -0.001802
     3  S    0.000612  -0.000174  -0.007859
     4  O    0.000220   0.001460   0.000456
     5  O   -0.000106  -0.000408  -0.000134
     6  O    0.003186   0.002482   0.001023
     7  O   -0.000720  -0.000872   0.004166
     8  C   -0.000514  -0.000235   0.000101
     9  C   -0.000003  -0.000565  -0.017700
    10  F   -0.000002  -0.000009   0.000000
    11  F   -0.000001  -0.000005   0.000000
    12  F   -0.000027  -0.000022   0.000011
    13  F    0.000586  -0.001683   0.003133
    14  F   -0.001683   0.002842   0.003103
    15  F    0.003133   0.003103   0.023918
 Mulliken atomic spin densities:
              1
     1  N    0.638794
     2  S   -0.320602
     3  S   -0.036929
     4  O    0.324791
     5  O    0.259572
     6  O    0.043845
     7  O    0.020735
     8  C    0.003441
     9  C    0.038642
    10  F    0.001517
    11  F    0.002654
    12  F    0.002512
    13  F    0.004585
    14  F    0.006684
    15  F    0.009760
 Sum of Mulliken atomic spin densities =   1.00000
 Electronic spatial extent (au):  <R**2>=           3340.8189
 Charge=              0.0000 electrons
 Dipole moment (field-independent basis, Debye):
    X=             -1.4314    Y=              1.9681    Z=              0.0475  Tot=              2.4340
 Quadrupole moment (field-independent basis, Debye-Ang):
   XX=            -97.4914   YY=           -100.2228   ZZ=           -101.1307
   XY=              2.1744   XZ=             -2.7565   YZ=             -0.5030
 Traceless Quadrupole moment (field-independent basis, Debye-Ang):
   XX=              2.1236   YY=             -0.6079   ZZ=             -1.5157
   XY=              2.1744   XZ=             -2.7565   YZ=             -0.5030
 Octapole moment (field-independent basis, Debye-Ang**2):
  XXX=             -9.2288  YYY=             34.2123  ZZZ=             -4.1836  XYY=             -2.5133
  XXY=             21.3558  XXZ=             -5.3527  XZZ=             -8.5691  YZZ=             10.7505
  YYZ=              1.9032  XYZ=             -0.0823
 Hexadecapole moment (field-independent basis, Debye-Ang**3):
 XXXX=          -2444.9421 YYYY=           -685.9489 ZZZZ=           -505.7679 XXXY=             12.7256
 XXXZ=            -37.0963 YYYX=              7.6735 YYYZ=             -8.2664 ZZZX=            -35.3526
 ZZZY=              9.2224 XXYY=           -532.6433 XXZZ=           -503.4317 YYZZ=           -193.8137
 XXYZ=              4.2605 YYXZ=             -9.1482 ZZXY=             12.1645
 N-N= 1.603786268115D+03 E-N=-1.128998120076D+04  KE= 2.735080239847D+03
                          Isotropic Fermi Contact Couplings
        Atom                 a.u.       MegaHertz       Gauss      10(-4) cm-1
     1  N(14)              0.08475      27.38211       9.77062       9.13369
     2  S(33)             -0.05872     -20.17006      -7.19718      -6.72801
     3  S(33)             -0.05756     -19.76880      -7.05400      -6.59416
     4  O(17)              0.03859     -23.39151      -8.34667      -7.80257
     5  O(17)              0.03033     -18.38645      -6.56074      -6.13306
     6  O(17)             -0.00052       0.31702       0.11312       0.10575
     7  O(17)              0.00069      -0.42023      -0.14995      -0.14017
     8  C(13)             -0.00622      -6.98705      -2.49315      -2.33063
     9  C(13)              0.04154      46.69476      16.66185      15.57569
    10  F(19)             -0.00142      -5.95468      -2.12478      -1.98627
    11  F(19)             -0.00124      -5.22860      -1.86569      -1.74407
    12  F(19)             -0.00179      -7.54202      -2.69118      -2.51575
    13  F(19)              0.00021       0.88433       0.31555       0.29498
    14  F(19)              0.00035       1.49023       0.53175       0.49709
    15  F(19)              0.00510      21.44719       7.65289       7.15401
 --------------------------------------------------------
       Center         ----  Spin Dipole Couplings  ----
                      3XX-RR        3YY-RR        3ZZ-RR
 --------------------------------------------------------
     1   Atom       -0.578816      0.318538      0.260278
     2   Atom       -0.030338      0.012783      0.017555
     3   Atom        0.031592     -0.036433      0.004841
     4   Atom        0.371581     -0.083931     -0.287650
     5   Atom       -0.232813     -0.461422      0.694234
     6   Atom        0.177294     -0.071101     -0.106193
     7   Atom        0.009064     -0.058717      0.049653
     8   Atom        0.004227     -0.002843     -0.001384
     9   Atom       -0.005727      0.028567     -0.022840
    10   Atom       -0.000401     -0.000031      0.000432
    11   Atom        0.011280     -0.006607     -0.004673
    12   Atom        0.000848      0.000517     -0.001365
    13   Atom       -0.014119      0.031269     -0.017150
    14   Atom       -0.015566      0.034780     -0.019214
    15   Atom        0.019263      0.022256     -0.041519
 --------------------------------------------------------
                        XY            XZ            YZ
 --------------------------------------------------------
     1   Atom        0.336932     -0.355775     -0.959787
     2   Atom       -0.038912     -0.014417      0.016581
     3   Atom       -0.001840      0.004760      0.035048
     4   Atom        0.651196      0.563879      0.433905
     5   Atom       -0.040495      0.452609     -0.033568
     6   Atom       -0.108160      0.041053     -0.023851
     7   Atom        0.005269      0.089084      0.020051
     8   Atom       -0.001026      0.001780     -0.001456
     9   Atom        0.036985     -0.014343     -0.024408
    10   Atom        0.001703      0.003113     -0.003050
    11   Atom       -0.001662     -0.000187     -0.002291
    12   Atom        0.000462      0.003520     -0.002117
    13   Atom        0.002653      0.000101     -0.011281
    14   Atom        0.011527     -0.003203     -0.012647
    15   Atom        0.089972     -0.044118     -0.044544
 --------------------------------------------------------


 ---------------------------------------------------------------------------------
              Anisotropic Spin Dipole Couplings in Principal Axis System
 ---------------------------------------------------------------------------------

       Atom             a.u.   MegaHertz   Gauss  10(-4) cm-1        Axes

              Baa    -0.7116   -27.444    -9.793    -9.154  0.8699  0.1525  0.4691
     1 N(14)  Bbb    -0.6609   -25.489    -9.095    -8.502 -0.4290  0.7032  0.5670
              Bcc     1.3725    52.933    18.888    17.657  0.2434  0.6944 -0.6771
 
              Baa    -0.0535    -2.194    -0.783    -0.732  0.8674  0.4940  0.0607
     2 S(33)  Bbb     0.0034     0.139     0.050     0.046  0.2311 -0.5078  0.8299
              Bcc     0.0501     2.055     0.733     0.685 -0.4408  0.7058  0.5546
 
              Baa    -0.0566    -2.322    -0.829    -0.775  0.0449  0.8664 -0.4973
     3 S(33)  Bbb     0.0236     0.968     0.345     0.323 -0.3662  0.4774  0.7987
              Bcc     0.0330     1.354     0.483     0.452  0.9295  0.1463  0.3387
 
              Baa    -0.6390    46.239    16.499    15.424 -0.1935 -0.4532  0.8702
     4 O(17)  Bbb    -0.5395    39.040    13.931    13.022 -0.6558  0.7194  0.2288
              Bcc     1.1786   -85.279   -30.430   -28.446  0.7297  0.5264  0.4364
 
              Baa    -0.4739    34.290    12.236    11.438  0.3831  0.9156 -0.1221
     5 O(17)  Bbb    -0.4063    29.398    10.490     9.806  0.8430 -0.4006 -0.3589
              Bcc     0.8802   -63.688   -22.725   -21.244  0.3776 -0.0345  0.9253
 
              Baa    -0.1201     8.690     3.101     2.899  0.1438  0.6714  0.7270
     6 O(17)  Bbb    -0.1043     7.549     2.694     2.518 -0.3488 -0.6531  0.6721
              Bcc     0.2244   -16.239    -5.794    -5.417  0.9261 -0.3503  0.1403
 
              Baa    -0.0697     5.045     1.800     1.683  0.5321  0.6754 -0.5105
     7 O(17)  Bbb    -0.0530     3.834     1.368     1.279 -0.5803  0.7300  0.3610
              Bcc     0.1227    -8.879    -3.168    -2.962  0.6166  0.1042  0.7804
 
              Baa    -0.0037    -0.502    -0.179    -0.168 -0.0094  0.8477  0.5304
     8 C(13)  Bbb    -0.0013    -0.168    -0.060    -0.056 -0.3507 -0.4995  0.7921
              Bcc     0.0050     0.670     0.239     0.224  0.9364 -0.1786  0.3020
 
              Baa    -0.0326    -4.377    -1.562    -1.460 -0.0826  0.4119  0.9075
     9 C(13)  Bbb    -0.0290    -3.898    -1.391    -1.300  0.8578 -0.4341  0.2751
              Bcc     0.0617     8.274     2.952     2.760  0.5073  0.8011 -0.3175
 
              Baa    -0.0053    -2.642    -0.943    -0.881 -0.5794  0.5430  0.6077
    10 F(19)  Bbb     0.0015     0.748     0.267     0.249  0.7066  0.7064  0.0425
              Bcc     0.0038     1.895     0.676     0.632  0.4062 -0.4541  0.7930
 
              Baa    -0.0082    -4.139    -1.477    -1.381  0.0765  0.8372  0.5416
    11 F(19)  Bbb    -0.0032    -1.603    -0.572    -0.535 -0.0510 -0.5392  0.8407
              Bcc     0.0114     5.742     2.049     1.915  0.9958 -0.0919  0.0015
 
              Baa    -0.0047    -2.367    -0.844    -0.789 -0.5203  0.3596  0.7746
    12 F(19)  Bbb     0.0010     0.499     0.178     0.166  0.4648  0.8801 -0.0964
              Bcc     0.0037     1.868     0.666     0.623  0.7164 -0.3099  0.6250
 
              Baa    -0.0197    -9.910    -3.536    -3.306 -0.1216  0.2204  0.9678
    13 F(19)  Bbb    -0.0142    -7.119    -2.540    -2.374  0.9911 -0.0255  0.1303
              Bcc     0.0339    17.028     6.076     5.680  0.0534  0.9751 -0.2153
 
              Baa    -0.0221   -11.110    -3.964    -3.706  0.1475  0.1860  0.9714
    14 F(19)  Bbb    -0.0180    -9.058    -3.232    -3.021  0.9666 -0.2353 -0.1017
              Bcc     0.0402    20.168     7.196     6.727  0.2097  0.9540 -0.2145
 
              Baa    -0.0692   -34.771   -12.407   -11.598  0.7216 -0.6913  0.0375
    15 F(19)  Bbb    -0.0640   -32.144   -11.470   -10.722  0.2083  0.2684  0.9405
              Bcc     0.1332    66.914    23.877    22.320  0.6603  0.6708 -0.3377
 

 ---------------------------------------------------------------------------------

 PrsmSu:  requested number of processors reduced to:  10 ShMem   1 Linda.
 Calling FoFJK, ICntrl=      2127 FMM=F ISym2X=0 I1Cent= 0 IOpClX= 1 NMat=1 NMatS=1 NMatT=0.
 CoulSu:  requested number of processors reduced to:  15 ShMem   1 Linda.
 ***** Axes restored to original set *****
 -------------------------------------------------------------------
 Center     Atomic                   Forces (Hartrees/Bohr)
 Number     Number              X              Y              Z
 -------------------------------------------------------------------
      1        7           0.026892550   -0.029692783   -0.024233218
      2       16          -0.004553611   -0.017619079   -0.043835791
      3       16          -0.027839739    0.067823822    0.066102476
      4        8          -0.006594428   -0.005019840    0.024553932
      5        8          -0.006886042    0.016587842    0.000068465
      6        8           0.010297031    0.005577670   -0.013477013
      7        8          -0.012450814   -0.007782007   -0.008036757
      8        6           0.019623115   -0.017225209   -0.018301681
      9        6           0.014856803   -0.024479237    0.025611080
     10        9          -0.011044070   -0.001621613   -0.000859997
     11        9           0.000868816    0.013514407   -0.000495457
     12        9           0.002015286   -0.001816911    0.013345479
     13        9           0.010308418    0.001439522   -0.007038662
     14        9          -0.010497260   -0.010070129   -0.007338209
     15        9          -0.004996055    0.010383545   -0.006064644
 -------------------------------------------------------------------
 Cartesian Forces:  Max     0.067823822 RMS     0.020743173

 GradGradGradGradGradGradGradGradGradGradGradGradGradGradGradGradGradGrad
 Berny optimization.
 Internal  Forces:  Max     0.068398526 RMS     0.013595500
 Search for a local minimum.
 Step number   1 out of a maximum of   73
 All quantities printed in internal units (Hartrees-Bohrs-Radians)
 Mixed Optimization -- RFO/linear search
 Second derivative matrix not updated -- first step.
     Eigenvalues ---    0.00230   0.00230   0.02887   0.03036   0.08123
     Eigenvalues ---    0.08270   0.08664   0.08807   0.09801   0.10191
     Eigenvalues ---    0.10296   0.10900   0.13914   0.15212   0.19622
     Eigenvalues ---    0.20449   0.24623   0.24848   0.25000   0.25000
     Eigenvalues ---    0.25000   0.25000   0.25000   0.25000   0.25000
     Eigenvalues ---    0.25000   0.25000   0.55343   0.57824   0.62074
     Eigenvalues ---    0.62350   0.63229   0.63711   0.63908   0.64372
     Eigenvalues ---    1.03772   1.04092   1.04400   1.050231000.00000
     Eigenvalues --- 1000.000001000.000001000.000001000.000001000.00000
     Eigenvalues --- 1000.000001000.000001000.000001000.000001000.00000
     Eigenvalues --- 1000.000001000.000001000.000001000.000001000.00000
     Eigenvalues --- 1000.000001000.000001000.000001000.000001000.00000
     Eigenvalues --- 1000.000001000.000001000.00000
 RFO step:  Lambda=-3.48260002D-02 EMin= 2.30000000D-03
 Linear search not attempted -- first point.
 Maximum step size (   0.300) exceeded in Quadratic search.
    -- Step size scaled by   0.771
 Iteration  1 RMS(Cart)=  0.05576483 RMS(Int)=  0.00241468
 Iteration  2 RMS(Cart)=  0.00257560 RMS(Int)=  0.00137218
 Iteration  3 RMS(Cart)=  0.00000527 RMS(Int)=  0.00137218
 Iteration  4 RMS(Cart)=  0.00000003 RMS(Int)=  0.00137218
 Variable       Old X    -DE/DX   Delta X   Delta X   Delta X     New X
                                 (Linear)    (Quad)   (Total)
    R1        2.98528   0.02559   0.00000   0.03354   0.03354   3.01883
    R2        2.96405   0.06840   0.00000   0.08603   0.08603   3.05008
    R3        2.70743   0.01904   0.00000   0.01365   0.01365   2.72108
    R4        2.70865   0.01185   0.00000   0.00852   0.00852   2.71717
    R5        3.43298   0.01485   0.00000   0.04041   0.04041   3.47338
    R6        2.70392   0.00935   0.00000   0.00665   0.00665   2.71057
    R7        2.70627   0.01059   0.00000   0.00757   0.00757   2.71383
    R8        3.43876   0.01953   0.00000   0.05358   0.05358   3.49234
    R9        2.49336   0.00643   0.00000   0.00756   0.00756   2.50092
   R10        2.47975   0.00931   0.00000   0.01066   0.01066   2.49041
   R11        2.48119   0.01016   0.00000   0.01166   0.01166   2.49285
   R12        2.48473   0.00998   0.00000   0.01154   0.01154   2.49627
   R13        2.47639   0.01383   0.00000   0.01571   0.01571   2.49211
   R14        2.49128   0.00087   0.00000   0.00101   0.00101   2.49229
    A1        2.19070   0.00379   0.00000   0.01026   0.01026   2.20096
    A2        2.00971  -0.01627   0.00000  -0.07652  -0.07873   1.93098
    A3        1.99349  -0.00966   0.00000  -0.04357  -0.04637   1.94711
    A4        1.69383   0.01247   0.00000   0.03893   0.03952   1.73335
    A5        2.05601   0.00260   0.00000   0.01722   0.01097   2.06699
    A6        1.82519   0.01027   0.00000   0.05034   0.05016   1.87535
    A7        1.82265   0.01039   0.00000   0.05523   0.05458   1.87724
    A8        1.92385  -0.00659   0.00000  -0.03849  -0.03719   1.88666
    A9        2.00178  -0.00359   0.00000  -0.03201  -0.03165   1.97014
   A10        1.80383  -0.02011   0.00000  -0.06601  -0.06586   1.73797
   A11        2.07635   0.00402   0.00000   0.04374   0.04025   2.11661
   A12        1.79833   0.01647   0.00000   0.05938   0.05729   1.85562
   A13        1.82143   0.01000   0.00000   0.03505   0.03267   1.85411
   A14        1.89218  -0.01066   0.00000  -0.02688  -0.02726   1.86492
   A15        1.95553  -0.01189   0.00000  -0.03314  -0.03366   1.92186
   A16        1.95053  -0.01053   0.00000  -0.02959  -0.03010   1.92044
   A17        1.88350   0.01206   0.00000   0.03466   0.03425   1.91776
   A18        1.88470   0.01124   0.00000   0.03224   0.03186   1.91657
   A19        1.89497   0.01135   0.00000   0.02722   0.02659   1.92155
   A20        1.93986  -0.00707   0.00000  -0.01800  -0.01835   1.92151
   A21        1.94958  -0.00917   0.00000  -0.02468  -0.02514   1.92444
   A22        1.90989  -0.01845   0.00000  -0.05122  -0.05192   1.85797
   A23        1.89056   0.00960   0.00000   0.02830   0.02814   1.91870
   A24        1.88408   0.01300   0.00000   0.03498   0.03439   1.91847
   A25        1.88799   0.01367   0.00000   0.03482   0.03399   1.92198
    D1       -1.03299   0.01425   0.00000   0.06057   0.05685  -0.97614
    D2        1.42630  -0.01487   0.00000  -0.06553  -0.06209   1.36422
    D3       -2.94877   0.00060   0.00000   0.00476   0.00503  -2.94374
    D4       -2.62546   0.00713   0.00000   0.04952   0.05015  -2.57531
    D5       -0.22528   0.00234   0.00000   0.04075   0.04009  -0.18518
    D6        1.74582   0.00056   0.00000   0.02838   0.02841   1.77423
    D7       -3.13683  -0.00228   0.00000  -0.01082  -0.01099   3.13536
    D8       -1.06012  -0.00146   0.00000  -0.00539  -0.00561  -1.06573
    D9        1.07117  -0.00300   0.00000  -0.01560  -0.01569   1.05548
   D10        1.08106   0.00774   0.00000   0.04289   0.04351   1.12457
   D11       -3.12541   0.00856   0.00000   0.04832   0.04890  -3.07652
   D12       -0.99413   0.00702   0.00000   0.03811   0.03881  -0.95531
   D13       -1.08959  -0.00536   0.00000  -0.02857  -0.02906  -1.11865
   D14        0.98712  -0.00454   0.00000  -0.02314  -0.02367   0.96345
   D15        3.11841  -0.00608   0.00000  -0.03335  -0.03376   3.08465
   D16        1.02353   0.00035   0.00000   0.00351   0.00311   1.02664
   D17       -1.09024  -0.00065   0.00000  -0.00305  -0.00314  -1.09338
   D18        3.10276   0.00027   0.00000   0.00292   0.00257   3.10533
   D19       -0.98041   0.00880   0.00000   0.04769   0.04898  -0.93142
   D20       -3.09418   0.00780   0.00000   0.04113   0.04273  -3.05145
   D21        1.09882   0.00872   0.00000   0.04710   0.04844   1.14726
   D22        3.12253  -0.00816   0.00000  -0.04606  -0.04731   3.07522
   D23        1.00876  -0.00916   0.00000  -0.05262  -0.05357   0.95520
   D24       -1.08143  -0.00824   0.00000  -0.04665  -0.04785  -1.12928
         Item               Value     Threshold  Converged?
 Maximum Force            0.068399     0.000450     NO 
 RMS     Force            0.013596     0.000300     NO 
 Maximum Displacement     0.151197     0.001800     NO 
 RMS     Displacement     0.056329     0.001200     NO 
 Predicted change in Energy=-1.808240D-02
 GradGradGradGradGradGradGradGradGradGradGradGradGradGradGradGradGradGrad

                          Input orientation:                          
 ---------------------------------------------------------------------
 Center     Atomic      Atomic             Coordinates (Angstroms)
 Number     Number       Type             X           Y           Z
 ---------------------------------------------------------------------
      1          7           0       -0.323137    0.547218    1.587709
      2         16           0       -1.260394   -0.367583    0.673009
      3         16           0       -0.798317    1.430652    2.852165
      4          8           0       -1.969472   -1.329990    1.475752
      5          8           0       -2.006790    0.418750   -0.271466
      6          8           0        0.030678    2.599467    2.915844
      7          8           0       -2.227116    1.523115    2.963367
      8          6           0        0.033826   -1.277174   -0.262945
      9          6           0       -0.243736    0.325225    4.225418
     10          9           0       -0.595253   -2.104848   -1.081897
     11          9           0        0.769048   -0.432252   -0.957447
     12          9           0        0.794683   -1.963022    0.568252
     13          9           0        1.058906    0.120969    4.145699
     14          9           0       -0.883597   -0.826636    4.171230
     15          9           0       -0.532332    0.952110    5.349309
 ---------------------------------------------------------------------
                    Distance matrix (angstroms):
                    1          2          3          4          5
     1  N    0.000000
     2  S    1.597494   0.000000
     3  S    1.614032   2.862845   0.000000
     4  O    2.499372   1.439936   3.299584   0.000000
     5  O    2.511518   1.437866   3.498774   2.472298   0.000000
     6  O    2.469991   3.937075   1.434369   4.638437   4.366434
     7  O    2.543608   3.123304   1.436100   3.227938   3.425246
     8  C    2.623118   1.838035   4.210546   2.653123   2.653365
     9  C    2.648225   3.759414   1.848067   3.643976   4.831053
    10  F    3.772837   2.557381   5.293188   3.005071   3.002962
    11  F    2.937694   2.604074   4.521082   3.771721   2.983295
    12  F    2.930890   2.603794   4.389866   2.977388   3.771766
    13  F    2.938545   4.204452   2.614915   4.290101   5.385027
    14  F    2.979290   3.548275   2.615828   2.949252   4.748694
    15  F    3.789108   4.913191   2.556459   4.719936   5.835376
                    6          7          8          9         10
     6  O    0.000000
     7  O    2.501684   0.000000
     8  C    5.013288   4.833484   0.000000
     9  C    2.638648   2.638467   4.773901   0.000000
    10  F    6.205184   5.673557   1.323430   5.847771   0.000000
    11  F    4.973821   5.307846   1.317868   5.334941   2.162033
    12  F    5.187600   5.198172   1.319159   4.437257   2.162182
    13  F    2.951737   3.763225   4.737271   1.320967   5.917624
    14  F    3.761658   2.964001   4.550446   1.318765   5.414085
    15  F    2.992076   2.981788   6.065282   1.318864   7.121051
                   11         12         13         14         15
    11  F    0.000000
    12  F    2.161405   0.000000
    13  F    5.141222   4.148609   0.000000
    14  F    5.402786   4.133938   2.161464   0.000000
    15  F    6.586745   5.754778   2.161368   2.162219   0.000000
 Stoichiometry    C2F6NO4S2(2)
 Framework group  C1[X(C2F6NO4S2)]
 Deg. of freedom    39
 Full point group                 C1      NOp   1
 Largest Abelian subgroup         C1      NOp   1
 Largest concise Abelian subgroup C1      NOp   1
                         Standard orientation:                         
 ---------------------------------------------------------------------
 Center     Atomic      Atomic             Coordinates (Angstroms)
 Number     Number       Type             X           Y           Z
 ---------------------------------------------------------------------
      1          7           0       -0.038943   -0.300778    0.585635
      2         16           0       -1.245436   -0.575669   -0.424709
      3         16           0        1.490782   -0.778049    0.392624
      4          8           0       -0.929034   -0.081125   -1.739522
      5          8           0       -1.743472   -1.918756   -0.300057
      6          8           0        2.042577   -1.041055    1.690224
      7          8           0        1.653114   -1.708602   -0.689087
      8          6           0       -2.503230    0.551622    0.300233
      9          6           0        2.239547    0.812470   -0.177424
     10          9           0       -3.590417    0.444516   -0.446775
     11          9           0       -2.773515    0.192352    1.539042
     12          9           0       -2.063851    1.795192    0.274545
     13          9           0        2.059007    1.751451    0.733988
     14          9           0        1.700742    1.186771   -1.321422
     15          9           0        3.528442    0.582683   -0.336645
 ---------------------------------------------------------------------
 Rotational constants (GHZ):      0.9381486      0.3394554      0.3166942
 Standard basis: 6-311+G(d) (5D, 7F)
 There are   346 symmetry adapted basis functions of A   symmetry.
 Integral buffers will be    131072 words long.
 Raffenetti 2 integral format.
 Two-electron integral symmetry is turned on.
   346 basis functions,   568 primitive gaussians,   361 cartesian basis functions
    69 alpha electrons       68 beta electrons
       nuclear repulsion energy      1595.1791802171 Hartrees.
 NAtoms=   15 NActive=   15 NUniq=   15 SFac= 7.50D-01 NAtFMM=   80 NAOKFM=F Big=F
 One-electron integrals computed using PRISM.
 PrsmSu:  requested number of processors reduced to:  10 ShMem   1 Linda.
 NBasis=   346 RedAO= T  NBF=   346
 NBsUse=   346 1.00D-06 NBFU=   346
 Initial guess read from the read-write file.
 B after Tr=     0.000000    0.000000    0.000000
         Rot=    1.000000    0.000000    0.000000    0.000000 Ang=   0.00 deg.
 Initial guess orbital symmetries:
 Alpha Orbitals:
       Occupied  (A) (A) (A) (A) (A) (A) (A) (A) (A) (A) (A) (A)
                 (A) (A) (A) (A) (A) (A) (A) (A) (A) (A) (A) (A)
                 (A) (A) (A) (A) (A) (A) (A) (A) (A) (A) (A) (A)
                 (A) (A) (A) (A) (A) (A) (A) (A) (A) (A) (A) (A)
                 (A) (A) (A) (A) (A) (A) (A) (A) (A) (A) (A) (A)
                 (A) (A) (A) (A) (A) (A) (A) (A) (A)
       Virtual   (A) (A) (A) (A) (A) (A) (A) (A) (A) (A) (A) (A)
                 (A) (A) (A) (A) (A) (A) (A) (A) (A) (A) (A) (A)
                 (A) (A) (A) (A) (A) (A) (A) (A) (A) (A) (A) (A)
                 (A) (A) (A) (A) (A) (A) (A) (A) (A) (A) (A) (A)
                 (A) (A) (A) (A) (A) (A) (A) (A) (A) (A) (A) (A)
                 (A) (A) (A) (A) (A) (A) (A) (A) (A) (A) (A) (A)
                 (A) (A) (A) (A) (A) (A) (A) (A) (A) (A) (A) (A)
                 (A) (A) (A) (A) (A) (A) (A) (A) (A) (A) (A) (A)
                 (A) (A) (A) (A) (A) (A) (A) (A) (A) (A) (A) (A)
                 (A) (A) (A) (A) (A) (A) (A) (A) (A) (A) (A) (A)
                 (A) (A) (A) (A) (A) (A) (A) (A) (A) (A) (A) (A)
                 (A) (A) (A) (A) (A) (A) (A) (A) (A) (A) (A) (A)
                 (A) (A) (A) (A) (A) (A) (A) (A) (A) (A) (A) (A)
                 (A) (A) (A) (A) (A) (A) (A) (A) (A) (A) (A) (A)
                 (A) (A) (A) (A) (A) (A) (A) (A) (A) (A) (A) (A)
                 (A) (A) (A) (A) (A) (A) (A) (A) (A) (A) (A) (A)
                 (A) (A) (A) (A) (A) (A) (A) (A) (A) (A) (A) (A)
                 (A) (A) (A) (A) (A) (A) (A) (A) (A) (A) (A) (A)
                 (A) (A) (A) (A) (A) (A) (A) (A) (A) (A) (A) (A)
                 (A) (A) (A) (A) (A) (A) (A) (A) (A) (A) (A) (A)
                 (A) (A) (A) (A) (A) (A) (A) (A) (A) (A) (A) (A)
                 (A) (A) (A) (A) (A) (A) (A) (A) (A) (A) (A) (A)
                 (A) (A) (A) (A) (A) (A) (A) (A) (A) (A) (A) (A)
                 (A)
 Beta  Orbitals:
       Occupied  (A) (A) (A) (A) (A) (A) (A) (A) (A) (A) (A) (A)
                 (A) (A) (A) (A) (A) (A) (A) (A) (A) (A) (A) (A)
                 (A) (A) (A) (A) (A) (A) (A) (A) (A) (A) (A) (A)
                 (A) (A) (A) (A) (A) (A) (A) (A) (A) (A) (A) (A)
                 (A) (A) (A) (A) (A) (A) (A) (A) (A) (A) (A) (A)
                 (A) (A) (A) (A) (A) (A) (A) (A)
       Virtual   (A) (A) (A) (A) (A) (A) (A) (A) (A) (A) (A) (A)
                 (A) (A) (A) (A) (A) (A) (A) (A) (A) (A) (A) (A)
                 (A) (A) (A) (A) (A) (A) (A) (A) (A) (A) (A) (A)
                 (A) (A) (A) (A) (A) (A) (A) (A) (A) (A) (A) (A)
                 (A) (A) (A) (A) (A) (A) (A) (A) (A) (A) (A) (A)
                 (A) (A) (A) (A) (A) (A) (A) (A) (A) (A) (A) (A)
                 (A) (A) (A) (A) (A) (A) (A) (A) (A) (A) (A) (A)
                 (A) (A) (A) (A) (A) (A) (A) (A) (A) (A) (A) (A)
                 (A) (A) (A) (A) (A) (A) (A) (A) (A) (A) (A) (A)
                 (A) (A) (A) (A) (A) (A) (A) (A) (A) (A) (A) (A)
                 (A) (A) (A) (A) (A) (A) (A) (A) (A) (A) (A) (A)
                 (A) (A) (A) (A) (A) (A) (A) (A) (A) (A) (A) (A)
                 (A) (A) (A) (A) (A) (A) (A) (A) (A) (A) (A) (A)
                 (A) (A) (A) (A) (A) (A) (A) (A) (A) (A) (A) (A)
                 (A) (A) (A) (A) (A) (A) (A) (A) (A) (A) (A) (A)
                 (A) (A) (A) (A) (A) (A) (A) (A) (A) (A) (A) (A)
                 (A) (A) (A) (A) (A) (A) (A) (A) (A) (A) (A) (A)
                 (A) (A) (A) (A) (A) (A) (A) (A) (A) (A) (A) (A)
                 (A) (A) (A) (A) (A) (A) (A) (A) (A) (A) (A) (A)
                 (A) (A) (A) (A) (A) (A) (A) (A) (A) (A) (A) (A)
                 (A) (A) (A) (A) (A) (A) (A) (A) (A) (A) (A) (A)
                 (A) (A) (A) (A) (A) (A) (A) (A) (A) (A) (A) (A)
                 (A) (A) (A) (A) (A) (A) (A) (A) (A) (A) (A) (A)
                 (A) (A)
 Initial guess <Sx>= 0.0000 <Sy>= 0.0000 <Sz>= 0.5000 <S**2>= 0.7638 S= 0.5069
 Harris functional with IExCor= 1009 diagonalized for initial guess.
 ExpMin= 4.05D-02 ExpMax= 9.34D+04 ExpMxC= 3.17D+03 IAcc=2 IRadAn=         0 AccDes= 0.00D+00
 HarFok:  IExCor= 1009 AccDes= 0.00D+00 IRadAn=         0 IDoV= 1
 ScaDFX=  1.000000  1.000000  1.000000  1.000000
 FoFCou: FMM=F IPFlag=           0 FMFlag=      100000 FMFlg1=           0
         NFxFlg=           0 DoJE=T BraDBF=F KetDBF=T FulRan=T
         Omega=  0.000000  0.000000  1.000000  0.000000  0.000000 ICntrl=     500 IOpCl=  0
         NMat0=    1 NMatS0=    1 NMatT0=    0 NMatD0=    1 NMtDS0=    0 NMtDT0=    0
         I1Cent=           4 NGrid=           0.
 Petite list used in FoFCou.
 Requested convergence on RMS density matrix=1.00D-08 within 128 cycles.
 Requested convergence on MAX density matrix=1.00D-06.
 Requested convergence on             energy=1.00D-06.
 No special actions if energy rises.
 Restarting incremental Fock formation.
 SCF Done:  E(UM062X) =  -1826.98177469     A.U. after   23 cycles
             Convg  =    0.6594D-08             -V/T =  2.0017
 <Sx>= 0.0000 <Sy>= 0.0000 <Sz>= 0.5000 <S**2>= 0.7610 S= 0.5055
 <L.S>= 0.000000000000E+00
 Annihilation of the first spin contaminant:
 S**2 before annihilation     0.7610,   after     0.7501
 PrsmSu:  requested number of processors reduced to:  10 ShMem   1 Linda.
 Calling FoFJK, ICntrl=      2127 FMM=F ISym2X=0 I1Cent= 0 IOpClX= 1 NMat=1 NMatS=1 NMatT=0.
 CoulSu:  requested number of processors reduced to:  15 ShMem   1 Linda.
 ***** Axes restored to original set *****
 -------------------------------------------------------------------
 Center     Atomic                   Forces (Hartrees/Bohr)
 Number     Number              X              Y              Z
 -------------------------------------------------------------------
      1        7           0.031840076   -0.018847839   -0.013455036
      2       16          -0.032313792   -0.004304486   -0.022760377
      3       16          -0.024435993    0.040752551    0.035216521
      4        8           0.005479898   -0.003752017    0.009020834
      5        8           0.005529223    0.003810170   -0.000987058
      6        8           0.002643130   -0.001536753   -0.006135797
      7        8          -0.000550106   -0.003674610   -0.001784524
      8        6           0.007800879   -0.007293915   -0.007165927
      9        6           0.006706888   -0.010248312    0.006999460
     10        9           0.001367977    0.002744196    0.002760968
     11        9          -0.001504180   -0.000355214    0.001795375
     12        9          -0.001332505    0.001386955   -0.000403034
     13        9          -0.002513493    0.000086523   -0.000056552
     14        9           0.001031356    0.001723666   -0.000362310
     15        9           0.000250642   -0.000490914   -0.002682544
 -------------------------------------------------------------------
 Cartesian Forces:  Max     0.040752551 RMS     0.012713369

 GradGradGradGradGradGradGradGradGradGradGradGradGradGradGradGradGradGrad
 Berny optimization.
 Using GEDIIS/GDIIS optimizer.
 Internal  Forces:  Max     0.044001177 RMS     0.007050237
 Search for a local minimum.
 Step number   2 out of a maximum of   73
 All quantities printed in internal units (Hartrees-Bohrs-Radians)
 Mixed Optimization -- RFO/linear search
 Update second derivatives using D2CorX and points    1    2
 DE= -1.79D-02 DEPred=-1.81D-02 R= 9.91D-01
 SS=  1.41D+00  RLast= 2.99D-01 DXNew= 5.0454D-01 8.9822D-01
 Trust test= 9.91D-01 RLast= 2.99D-01 DXMaxT set to 5.05D-01
 Use linear search instead of GDIIS.
     Eigenvalues ---    0.00230   0.00230   0.02885   0.02980   0.08411
     Eigenvalues ---    0.08669   0.08685   0.09263   0.09310   0.09475
     Eigenvalues ---    0.10296   0.10537   0.15506   0.18243   0.19992
     Eigenvalues ---    0.20089   0.23011   0.24749   0.24940   0.25000
     Eigenvalues ---    0.25000   0.25000   0.25000   0.25000   0.25000
     Eigenvalues ---    0.25000   0.29403   0.46011   0.56084   0.62238
     Eigenvalues ---    0.62406   0.63389   0.63804   0.64126   0.67475
     Eigenvalues ---    1.03868   1.04161   1.04718   1.057811000.00000
     Eigenvalues --- 1000.000001000.000001000.000001000.000001000.00000
     Eigenvalues --- 1000.000001000.000001000.000001000.000001000.00000
     Eigenvalues --- 1000.000001000.000001000.000001000.000001000.00000
     Eigenvalues --- 1000.000001000.000001000.000001000.000001000.00000
     Eigenvalues --- 1000.000001000.000001000.00000
 RFO step:  Lambda=-9.51469819D-03 EMin= 2.29999834D-03
 Quartic linear search produced a step of  0.51084.
 Iteration  1 RMS(Cart)=  0.06793369 RMS(Int)=  0.00256417
 Iteration  2 RMS(Cart)=  0.00301411 RMS(Int)=  0.00115049
 Iteration  3 RMS(Cart)=  0.00000512 RMS(Int)=  0.00115049
 Iteration  4 RMS(Cart)=  0.00000001 RMS(Int)=  0.00115049
 Variable       Old X    -DE/DX   Delta X   Delta X   Delta X     New X
                                 (Linear)    (Quad)   (Total)
    R1        3.01883   0.02338   0.01714   0.05044   0.06758   3.08640
    R2        3.05008   0.04400   0.04395   0.08193   0.12588   3.17596
    R3        2.72108   0.00484   0.00697   0.00226   0.00924   2.73032
    R4        2.71717  -0.00014   0.00435  -0.00311   0.00124   2.71842
    R5        3.47338   0.00776   0.02064   0.02916   0.04980   3.52318
    R6        2.71057   0.00001   0.00339  -0.00225   0.00114   2.71171
    R7        2.71383   0.00017   0.00387  -0.00234   0.00153   2.71536
    R8        3.49234   0.00984   0.02737   0.03645   0.06382   3.55616
    R9        2.50092  -0.00408   0.00386  -0.01239  -0.00853   2.49239
   R10        2.49041  -0.00202   0.00544  -0.00845  -0.00300   2.48741
   R11        2.49285  -0.00172   0.00596  -0.00812  -0.00216   2.49069
   R12        2.49627  -0.00250   0.00589  -0.00993  -0.00404   2.49222
   R13        2.49211  -0.00199   0.00803  -0.01013  -0.00210   2.49001
   R14        2.49229  -0.00257   0.00052  -0.00645  -0.00593   2.48636
    A1        2.20096  -0.00150   0.00524  -0.01277  -0.00752   2.19344
    A2        1.93098  -0.00490  -0.04022  -0.02766  -0.06934   1.86164
    A3        1.94711  -0.00075  -0.02369   0.00629  -0.01870   1.92842
    A4        1.73335  -0.00050   0.02019  -0.03845  -0.01844   1.71491
    A5        2.06699   0.00750   0.00561   0.08376   0.08546   2.15245
    A6        1.87535  -0.00135   0.02562  -0.02676  -0.00270   1.87265
    A7        1.87724  -0.00132   0.02788  -0.02089   0.00595   1.88318
    A8        1.88666  -0.00351  -0.01900  -0.03337  -0.05097   1.83570
    A9        1.97014   0.00073  -0.01617   0.01010  -0.00544   1.96470
   A10        1.73797  -0.00778  -0.03364  -0.03092  -0.06440   1.67357
   A11        2.11661   0.00190   0.02056   0.02484   0.04141   2.15801
   A12        1.85562   0.00454   0.02927   0.00898   0.03469   1.89031
   A13        1.85411   0.00275   0.01669   0.01154   0.02537   1.87947
[...]
  Beta virt. eigenvalues --    2.97725   3.00203   3.03298   3.03445   3.04177
  Beta virt. eigenvalues --    3.04384   3.15481   3.16320   3.50119   3.53092
  Beta virt. eigenvalues --    3.60313   3.60748   3.73627   3.73707   3.77609
  Beta virt. eigenvalues --    3.77645   3.77943   3.78010   3.78747   3.78933
  Beta virt. eigenvalues --    3.80238   3.80268   3.80411   3.81789   3.84423
  Beta virt. eigenvalues --    3.84479   3.89991   3.92741   3.93036   3.93059
  Beta virt. eigenvalues --    3.95649   3.96475   4.14904   4.15727   4.18666
  Beta virt. eigenvalues --    4.25726   4.26067   4.26069   4.28096   4.40423
  Beta virt. eigenvalues --    4.40681   4.94037   4.94366   4.95018   4.95523
  Beta virt. eigenvalues --    5.06138   5.06479   5.09877   5.10102   5.11146
  Beta virt. eigenvalues --    5.12395   5.14833   5.20995   5.22473   5.23029
  Beta virt. eigenvalues --    5.36339   5.37146   6.37220   6.38447   6.38693
  Beta virt. eigenvalues --    6.40390   6.42790   6.43616   6.44652   6.45029
  Beta virt. eigenvalues --    6.45348   6.45352   6.48022   6.48155   6.50225
  Beta virt. eigenvalues --    6.51685   6.85258   6.86296   6.86311   6.86937
  Beta virt. eigenvalues --    8.19369   8.28516  17.46770  17.48444  17.53160
  Beta virt. eigenvalues --   17.55195  17.64010  17.65231  23.50711  23.51783
  Beta virt. eigenvalues --   35.39479  49.89382  49.89698  49.94272  49.95047
  Beta virt. eigenvalues --   66.81847  66.82379  66.82656  66.83822  66.87624
  Beta virt. eigenvalues --   66.87659 189.43425 189.54203
          Condensed to atoms (all electrons):
              1          2          3          4          5          6
     1  N   10.050452  -1.158095  -1.159942  -0.385831  -0.384094  -0.385485
     2  S   -1.158095  17.888517   0.007848  -0.088375   0.237203   0.106777
     3  S   -1.159942   0.007848  17.891460   0.106769  -0.029767  -0.089459
     4  O   -0.385831  -0.088375   0.106769   9.012823  -0.411064   0.041276
     5  O   -0.384094   0.237203  -0.029767  -0.411064   8.987028  -0.007415
     6  O   -0.385485   0.106777  -0.089459   0.041276  -0.007415   9.012320
     7  O   -0.385146  -0.029824   0.239016  -0.007527   0.004853  -0.410787
     8  C    0.596630  -1.167521   0.068348  -0.239683  -0.442746  -0.041605
     9  C    0.597513   0.068304  -1.169500  -0.041618   0.025420  -0.238849
    10  F   -0.003777  -0.087819   0.007291   0.013593   0.008328   0.000238
    11  F    0.004192  -0.008784  -0.006198   0.000158   0.001947  -0.005530
    12  F    0.016074   0.031024  -0.020192   0.000475   0.002220  -0.000822
    13  F    0.016044  -0.020121   0.031152  -0.000823  -0.000102   0.000489
    14  F    0.004131  -0.006149  -0.008743  -0.005533  -0.000011   0.000132
    15  F   -0.003838   0.007306  -0.087761   0.000239   0.000314   0.013481
              7          8          9         10         11         12
     1  N   -0.385146   0.596630   0.597513  -0.003777   0.004192   0.016074
     2  S   -0.029824  -1.167521   0.068304  -0.087819  -0.008784   0.031024
     3  S    0.239016   0.068348  -1.169500   0.007291  -0.006198  -0.020192
     4  O   -0.007527  -0.239683  -0.041618   0.013593   0.000158   0.000475
     5  O    0.004853  -0.442746   0.025420   0.008328   0.001947   0.002220
     6  O   -0.410787  -0.041605  -0.238849   0.000238  -0.005530  -0.000822
     7  O    8.987175   0.025485  -0.443896   0.000315  -0.000013  -0.000107
     8  C    0.025485   6.624410  -0.025762   0.278836   0.168677   0.107848
     9  C   -0.443896  -0.025762   6.626118  -0.001163   0.004002   0.002855
    10  F    0.000315   0.278836  -0.001163   8.911309  -0.038353  -0.043980
    11  F   -0.000013   0.168677   0.004002  -0.038353   8.943962  -0.043068
    12  F   -0.000107   0.107848   0.002855  -0.043980  -0.043068   8.947296
    13  F    0.002221   0.002835   0.107711  -0.000033  -0.000425  -0.000055
    14  F    0.002025   0.003992   0.168792   0.000004   0.000136  -0.000428
    15  F    0.008455  -0.001165   0.278718   0.000001   0.000004  -0.000033
             13         14         15
     1  N    0.016044   0.004131  -0.003838
     2  S   -0.020121  -0.006149   0.007306
     3  S    0.031152  -0.008743  -0.087761
     4  O   -0.000823  -0.005533   0.000239
     5  O   -0.000102  -0.000011   0.000314
     6  O    0.000489   0.000132   0.013481
     7  O    0.002221   0.002025   0.008455
     8  C    0.002835   0.003992  -0.001165
     9  C    0.107711   0.168792   0.278718
    10  F   -0.000033   0.000004   0.000001
    11  F   -0.000425   0.000136   0.000004
    12  F   -0.000055  -0.000428  -0.000033
    13  F    8.947353  -0.043102  -0.043951
    14  F   -0.043102   8.943873  -0.038350
    15  F   -0.043951  -0.038350   8.911361
 Mulliken atomic charges:
              1
     1  N   -0.418829
     2  S    0.219711
     3  S    0.219678
     4  O    0.005122
     5  O    0.007884
     6  O    0.005240
     7  O    0.007754
     8  C    0.041423
     9  C    0.041357
    10  F   -0.044788
    11  F   -0.020705
    12  F    0.000895
    13  F    0.000807
    14  F   -0.020769
    15  F   -0.044780
 Sum of Mulliken atomic charges =   0.00000
 Mulliken charges with hydrogens summed into heavy atoms:
              1
     1  N   -0.418829
     2  S    0.219711
     3  S    0.219678
     4  O    0.005122
     5  O    0.007884
     6  O    0.005240
     7  O    0.007754
     8  C    0.041423
     9  C    0.041357
    10  F   -0.044788
    11  F   -0.020705
    12  F    0.000895
    13  F    0.000807
    14  F   -0.020769
    15  F   -0.044780
 Sum of Mulliken charges with hydrogens summed into heavy atoms =   0.00000
          Atomic-Atomic Spin Densities.
              1          2          3          4          5          6
     1  N    0.817138   0.016303   0.016457   0.001740   0.032422   0.001716
     2  S    0.016303  -0.292508   0.004119   0.103748   0.013808  -0.004042
     3  S    0.016457   0.004119  -0.292843  -0.004024   0.010278   0.104024
     4  O    0.001740   0.103748  -0.004024  -0.035253   0.052739   0.000390
     5  O    0.032422   0.013808   0.010278   0.052739  -0.065128  -0.004045
     6  O    0.001716  -0.004042   0.104024   0.000390  -0.004045  -0.035190
     7  O    0.032465   0.010303   0.013559  -0.004029  -0.002996   0.052752
     8  C   -0.016705   0.042360  -0.004368  -0.016891   0.028000   0.004560
     9  C   -0.016782  -0.004352   0.042433   0.004563  -0.004181  -0.017025
    10  F   -0.000945  -0.004452  -0.000016  -0.001973   0.002335  -0.000028
    11  F   -0.000728   0.000210   0.002316   0.000660   0.000971  -0.000053
    12  F   -0.001930   0.001848   0.000557   0.001584  -0.000368  -0.000068
    13  F   -0.001925   0.000556   0.001839  -0.000068   0.000057   0.001593
    14  F   -0.000725   0.002317   0.000207  -0.000053   0.000009   0.000667
    15  F   -0.000946  -0.000017  -0.004464  -0.000028  -0.000066  -0.001963
              7          8          9         10         11         12
     1  N    0.032465  -0.016705  -0.016782  -0.000945  -0.000728  -0.001930
     2  S    0.010303   0.042360  -0.004352  -0.004452   0.000210   0.001848
     3  S    0.013559  -0.004368   0.042433  -0.000016   0.002316   0.000557
     4  O   -0.004029  -0.016891   0.004563  -0.001973   0.000660   0.001584
     5  O   -0.002996   0.028000  -0.004181   0.002335   0.000971  -0.000368
     6  O    0.052752   0.004560  -0.017025  -0.000028  -0.000053  -0.000068
     7  O   -0.065023  -0.004182   0.028143  -0.000066   0.000009   0.000057
     8  C   -0.004182  -0.040937  -0.001024   0.007196   0.001803   0.000209
     9  C    0.028143  -0.001024  -0.040945   0.000066  -0.000553  -0.000184
    10  F   -0.000066   0.007196   0.000066  -0.002730   0.000388   0.000016
    11  F    0.000009   0.001803  -0.000553   0.000388  -0.000377  -0.000068
    12  F    0.000057   0.000209  -0.000184   0.000016  -0.000068  -0.001322
    13  F   -0.000376  -0.000183   0.000217   0.000000  -0.000018   0.000000
    14  F    0.000961  -0.000552   0.001816  -0.000001  -0.000015  -0.000018
    15  F    0.002332   0.000066   0.007187   0.000000  -0.000001   0.000000
             13         14         15
     1  N   -0.001925  -0.000725  -0.000946
     2  S    0.000556   0.002317  -0.000017
     3  S    0.001839   0.000207  -0.004464
     4  O   -0.000068  -0.000053  -0.000028
     5  O    0.000057   0.000009  -0.000066
     6  O    0.001593   0.000667  -0.001963
     7  O   -0.000376   0.000961   0.002332
     8  C   -0.000183  -0.000552   0.000066
     9  C    0.000217   0.001816   0.007187
    10  F    0.000000  -0.000001   0.000000
    11  F   -0.000018  -0.000015  -0.000001
    12  F    0.000000  -0.000018   0.000000
    13  F   -0.001323  -0.000069   0.000016
    14  F   -0.000069  -0.000380   0.000389
    15  F    0.000016   0.000389  -0.002712
 Mulliken atomic spin densities:
              1
     1  N    0.877555
     2  S   -0.109801
     3  S   -0.109925
     4  O    0.103104
     5  O    0.063835
     6  O    0.103288
     7  O    0.063910
     8  C   -0.000647
     9  C   -0.000621
    10  F   -0.000212
    11  F    0.004544
    12  F    0.000312
    13  F    0.000313
    14  F    0.004552
    15  F   -0.000207
 Sum of Mulliken atomic spin densities =   1.00000
 Electronic spatial extent (au):  <R**2>=           3618.9380
 Charge=              0.0000 electrons
 Dipole moment (field-independent basis, Debye):
    X=             -0.0026    Y=              2.6982    Z=              0.0002  Tot=              2.6982
 Quadrupole moment (field-independent basis, Debye-Ang):
   XX=            -90.6450   YY=           -100.5661   ZZ=           -102.8135
   XY=              0.0013   XZ=             -1.5331   YZ=              0.0006
 Traceless Quadrupole moment (field-independent basis, Debye-Ang):
   XX=              7.3632   YY=             -2.5579   ZZ=             -4.8053
   XY=              0.0013   XZ=             -1.5331   YZ=              0.0006
 Octapole moment (field-independent basis, Debye-Ang**2):
  XXX=             -0.0154  YYY=             32.4050  ZZZ=             -0.0019  XYY=             -0.0050
  XXY=             19.0226  XXZ=             -0.0037  XZZ=             -0.0079  YZZ=             15.4347
  YYZ=             -0.0046  XYZ=             -2.3537
 Hexadecapole moment (field-independent basis, Debye-Ang**3):
 XXXX=          -2694.4468 YYYY=           -692.4023 ZZZZ=           -480.1254 XXXY=              0.0022
 XXXZ=            -17.3138 YYYX=             -0.0080 YYYZ=              0.0076 ZZZX=            -29.1042
 ZZZY=              0.0032 XXYY=           -570.1411 XXZZ=           -548.2042 YYZZ=           -199.5940
 XXYZ=              0.0066 YYXZ=             -0.6552 ZZXY=              0.0106
 N-N= 1.563307945474D+03 E-N=-1.116923047817D+04  KE= 2.734412745099D+03
                          Isotropic Fermi Contact Couplings
        Atom                 a.u.       MegaHertz       Gauss      10(-4) cm-1
     1  N(14)              0.10944      35.35912      12.61701      11.79453
     2  S(33)             -0.04203     -14.43650      -5.15130      -4.81550
     3  S(33)             -0.04210     -14.46149      -5.16022      -4.82384
     4  O(17)              0.01413      -8.56286      -3.05544      -2.85626
     5  O(17)              0.00551      -3.34080      -1.19208      -1.11437
     6  O(17)              0.01416      -8.58085      -3.06186      -2.86226
     7  O(17)              0.00552      -3.34644      -1.19409      -1.11625
     8  C(13)             -0.00460      -5.17150      -1.84532      -1.72503
     9  C(13)             -0.00458      -5.14542      -1.83601      -1.71633
    10  F(19)             -0.00053      -2.24439      -0.80086      -0.74865
    11  F(19)              0.00069       2.91437       1.03992       0.97213
    12  F(19)             -0.00057      -2.38583      -0.85132      -0.79583
    13  F(19)             -0.00057      -2.38725      -0.85183      -0.79630
    14  F(19)              0.00070       2.92870       1.04503       0.97691
    15  F(19)             -0.00053      -2.23105      -0.79610      -0.74420
 --------------------------------------------------------
       Center         ----  Spin Dipole Couplings  ----
                      3XX-RR        3YY-RR        3ZZ-RR
 --------------------------------------------------------
     1   Atom       -0.936347     -0.975107      1.911453
     2   Atom       -0.041293      0.035913      0.005381
     3   Atom       -0.041212      0.035921      0.005291
     4   Atom        0.104884      0.085107     -0.189991
     5   Atom       -0.012018      0.020850     -0.008832
     6   Atom        0.105393      0.085157     -0.190550
     7   Atom       -0.011941      0.020918     -0.008978
     8   Atom        0.010672     -0.007318     -0.003354
     9   Atom        0.010674     -0.007306     -0.003368
    10   Atom        0.001734     -0.002125      0.000391
    11   Atom        0.018541     -0.012291     -0.006250
    12   Atom        0.004055     -0.000286     -0.003770
    13   Atom        0.004041     -0.000272     -0.003769
    14   Atom        0.018564     -0.012306     -0.006258
    15   Atom        0.001764     -0.002129      0.000365
 --------------------------------------------------------
                        XY            XZ            YZ
 --------------------------------------------------------
     1   Atom        0.000380     -0.409593     -0.002344
     2   Atom       -0.035003      0.001273      0.002106
     3   Atom        0.034955      0.001354     -0.002061
     4   Atom        0.286462      0.093745      0.094560
     5   Atom        0.111380      0.105428      0.114918
     6   Atom       -0.287079      0.093702     -0.094439
     7   Atom       -0.111624      0.105537     -0.115032
     8   Atom       -0.000124      0.000633     -0.000898
     9   Atom        0.000147      0.000617      0.000886
    10   Atom        0.001526     -0.001518      0.000973
    11   Atom       -0.002532     -0.005868      0.000812
    12   Atom       -0.007675      0.000258     -0.000928
    13   Atom        0.007678      0.000261      0.000914
    14   Atom        0.002519     -0.005891     -0.000820
    15   Atom       -0.001476     -0.001547     -0.000989
 --------------------------------------------------------


 ---------------------------------------------------------------------------------
              Anisotropic Spin Dipole Couplings in Principal Axis System
 ---------------------------------------------------------------------------------

       Atom             a.u.   MegaHertz   Gauss  10(-4) cm-1        Axes

              Baa    -0.9941   -38.340   -13.681   -12.789  0.9902 -0.0026  0.1396
     1 N(14)  Bbb    -0.9751   -37.608   -13.419   -12.545  0.0024  1.0000  0.0012
              Bcc     1.9692    75.947    27.100    25.333 -0.1396 -0.0008  0.9902
 
              Baa    -0.0549    -2.249    -0.803    -0.750  0.9323  0.3602 -0.0323
     2 S(33)  Bbb     0.0054     0.221     0.079     0.074  0.0424 -0.0203  0.9989
              Bcc     0.0495     2.028     0.724     0.677 -0.3592  0.9326  0.0342
 
              Baa    -0.0548    -2.245    -0.801    -0.749  0.9323 -0.3601 -0.0334
     3 S(33)  Bbb     0.0053     0.218     0.078     0.073  0.0428  0.0183  0.9989
              Bcc     0.0495     2.027     0.723     0.676  0.3591  0.9327 -0.0325
 
              Baa    -0.2198    15.901     5.674     5.304 -0.0857 -0.2208  0.9715
     4 O(17)  Bbb    -0.1914    13.847     4.941     4.619  0.7075 -0.7000 -0.0967
              Bcc     0.4111   -29.748   -10.615    -9.923  0.7015  0.6791  0.2162
 
              Baa    -0.1160     8.392     2.994     2.799 -0.6642 -0.0833  0.7429
     5 O(17)  Bbb    -0.1062     7.687     2.743     2.564 -0.5088  0.7784 -0.3676
              Bcc     0.2222   -16.079    -5.737    -5.363  0.5477  0.6222  0.5594
 
              Baa    -0.2202    15.933     5.685     5.315 -0.0857  0.2199  0.9717
     6 O(17)  Bbb    -0.1917    13.872     4.950     4.627  0.7072  0.7005 -0.0961
              Bcc     0.4119   -29.805   -10.635    -9.942  0.7018 -0.6789  0.2156
 
              Baa    -0.1161     8.402     2.998     2.803 -0.6639  0.0830  0.7432
     7 O(17)  Bbb    -0.1064     7.700     2.747     2.568  0.5089  0.7783  0.3677
              Bcc     0.2225   -16.102    -5.745    -5.371 -0.5479  0.6223 -0.5590
 
              Baa    -0.0075    -1.008    -0.360    -0.336 -0.0007  0.9774  0.2113
     8 C(13)  Bbb    -0.0032    -0.428    -0.153    -0.143 -0.0465 -0.2111  0.9764
              Bcc     0.0107     1.436     0.512     0.479  0.9989 -0.0091  0.0456
 
              Baa    -0.0075    -1.006    -0.359    -0.336 -0.0008  0.9778 -0.2097
     9 C(13)  Bbb    -0.0032    -0.430    -0.154    -0.144 -0.0456  0.2094  0.9768
              Bcc     0.0107     1.436     0.512     0.479  0.9990  0.0103  0.0445
 
              Baa    -0.0032    -1.630    -0.581    -0.544 -0.3754  0.8442 -0.3826
    10 F(19)  Bbb     0.0004     0.195     0.070     0.065  0.3260  0.5067  0.7981
              Bcc     0.0029     1.434     0.512     0.478  0.8676  0.1748 -0.4654
 
              Baa    -0.0125    -6.287    -2.243    -2.097  0.0690  0.9955 -0.0644
    11 F(19)  Bbb    -0.0076    -3.796    -1.354    -1.266  0.2235  0.0475  0.9735
              Bcc     0.0201    10.083     3.598     3.363  0.9723 -0.0815 -0.2192
 
              Baa    -0.0062    -3.130    -1.117    -1.044  0.5776  0.7820  0.2342
    12 F(19)  Bbb    -0.0037    -1.844    -0.658    -0.615 -0.1853 -0.1539  0.9706
              Bcc     0.0099     4.974     1.775     1.659  0.7950 -0.6040  0.0560
 
              Baa    -0.0062    -3.126    -1.116    -1.043 -0.5792  0.7822 -0.2296
    13 F(19)  Bbb    -0.0037    -1.846    -0.659    -0.616 -0.1823  0.1502  0.9717
              Bcc     0.0099     4.973     1.774     1.659  0.7946  0.6046  0.0556
 
              Baa    -0.0125    -6.294    -2.246    -2.100 -0.0681  0.9955  0.0662
    14 F(19)  Bbb    -0.0076    -3.803    -1.357    -1.269  0.2241 -0.0494  0.9733
              Bcc     0.0201    10.098     3.603     3.368  0.9722  0.0811 -0.2198
 
              Baa    -0.0032    -1.624    -0.580    -0.542  0.3698  0.8431  0.3905
    15 F(19)  Bbb     0.0004     0.179     0.064     0.060  0.3325 -0.5126  0.7917
              Bcc     0.0029     1.446     0.516     0.482  0.8676 -0.1629 -0.4698
 

 ---------------------------------------------------------------------------------

 1\1\GINC-N0647\FOpt\UM062X\6-311+G(d)\C2F6N1O4S2(2)\WAB665\09-Mar-2017
 \0\\# opt M062X/6-311+G* geom=connectivity\\Title Card Required\\0,2\N
 ,-0.4230859491,-0.1043578732,1.9223905248\S,-1.3427812144,-0.403548404
 7,0.5164208448\S,-0.9613981064,1.1577908542,2.9361120259\O,-2.34973742
 27,-1.3555227207,0.8857068196\O,-1.6095125852,0.8142819652,-0.18976004
 41\O,-0.3225919294,2.3535682725,2.4684095446\O,-2.3668191556,1.0457095
 827,3.1916156168\C,-0.0000943155,-1.3088240784,-0.4110825227\C,-0.0640
 644059,0.5806809853,4.467163175\F,-0.4992019044,-1.6523200199,-1.58160
 83661\F,1.0304241036,-0.505594221,-0.5741114472\F,0.359055042,-2.38105
 42197,0.2604462888\F,1.2315685043,0.559794254,4.2421809624\F,-0.490712
 6329,-0.6220950907,4.7913353775\F,-0.3440480285,1.4374907144,5.4287811
 999\\Version=EM64L-G09RevA.02\State=2-A\HF=-1826.9971659\S2=0.756451\S
 2-1=0.\S2A=0.750035\RMSD=8.465e-09\RMSF=3.005e-05\Dipole=0.8637066,-0.
 571984,0.2317634\Quadrupole=-2.4883386,-2.3056667,4.7940053,-0.9437742
 ,-0.1397472,2.5136005\PG=C01 [X(C2F6N1O4S2)]\\@


 The most important thing in communication is to hear what isn't being said.
 -- Peter F. Drucker
 Job cpu time:  0 days 19 hours 19 minutes 58.4 seconds.
 File lengths (MBytes):  RWF=    262 Int=      0 D2E=      0 Chk=     32 Scr=      4
 Normal termination of Gaussian 09 at Thu Mar  9 12:47:19 2017.
.
 File lengths (MBytes):  RWF=    262 Int=      0 D2E=      0 Chk=     32 Scr=      4
 Normal termination of Gaussian 09 at Thu Mar  9 12:43:28 2017.
17.
