 Entering Gaussian System, Link 0=g09
 Input=Ethyne_MP2_6-31Gdp.com
 Output=Ethyne_MP2_6-31Gdp.log
 Initial command:
 /sw/contrib/gaussian/g09/E01/g09/l1.exe "/scr/Gau-27152.inp" -scrdir="/scr/"
 Entering Link 1 = /sw/contrib/gaussian/g09/E01/g09/l1.exe PID=     27153.
  
 Copyright (c) 1988,1990,1992,1993,1995,1998,2003,2009,2015,
            Gaussian, Inc.  All Rights Reserved.
  
 This is part of the Gaussian(R) 09 program.  It is based on
 the Gaussian(R) 03 system (copyright 2003, Gaussian, Inc.),
 the Gaussian(R) 98 system (copyright 1998, Gaussian, Inc.),
 the Gaussian(R) 94 system (copyright 1995, Gaussian, Inc.),
 the Gaussian 92(TM) system (copyright 1992, Gaussian, Inc.),
 the Gaussian 90(TM) system (copyright 1990, Gaussian, Inc.),
 the Gaussian 88(TM) system (copyright 1988, Gaussian, Inc.),
 the Gaussian 86(TM) system (copyright 1986, Carnegie Mellon
 University), and the Gaussian 82(TM) system (copyright 1983,
 Carnegie Mellon University). Gaussian is a federally registered
 trademark of Gaussian, Inc.
  
 This software contains proprietary and confidential information,
 including trade secrets, belonging to Gaussian, Inc.
  
 This software is provided under written license and may be
 used, copied, transmitted, or stored only in accord with that
 written license.
  
 The following legend is applicable only to US Government
 contracts under FAR:
  
                    RESTRICTED RIGHTS LEGEND
  
 Use, reproduction and disclosure by the US Government is
 subject to restrictions as set forth in subparagraphs (a)
 and (c) of the Commercial Computer Software - Restricted
 Rights clause in FAR 52.227-19.
  
 Gaussian, Inc.
 340 Quinnipiac St., Bldg. 40, Wallingford CT 06492
  
  
 ---------------------------------------------------------------
 Warning -- This program may not be used in any manner that
 competes with the business of Gaussian, Inc. or will provide
 assistance to any competitor of Gaussian, Inc.  The licensee
 of this program is prohibited from giving any competitor of
 Gaussian, Inc. access to this program.  By using this program,
 the user acknowledges that Gaussian, Inc. is engaged in the
 business of creating and licensing software in the field of
 computational chemistry and represents and warrants to the
 licensee that it is not a competitor of Gaussian, Inc. and that
 it will not use this program in any manner prohibited above.
 ---------------------------------------------------------------
  

 Cite this work as:
 Gaussian 09, Revision E.01,
 M. J. Frisch, G. W. Trucks, H. B. Schlegel, G. E. Scuseria, 
 M. A. Robb, J. R. Cheeseman, G. Scalmani, V. Barone, B. Mennucci, 
 G. A. Petersson, H. Nakatsuji, M. Caricato, X. Li, H. P. Hratchian, 
 A. F. Izmaylov, J. Bloino, G. Zheng, J. L. Sonnenberg, M. Hada, 
 M. Ehara, K. Toyota, R. Fukuda, J. Hasegawa, M. Ishida, T. Nakajima, 
 Y. Honda, O. Kitao, H. Nakai, T. Vreven, J. A. Montgomery, Jr., 
 J. E. Peralta, F. Ogliaro, M. Bearpark, J. J. Heyd, E. Brothers, 
 K. N. Kudin, V. N. Staroverov, T. Keith, R. Kobayashi, J. Normand, 
 K. Raghavachari, A. Rendell, J. C. Burant, S. S. Iyengar, J. Tomasi, 
 M. Cossi, N. Rega, J. M. Millam, M. Klene, J. E. Knox, J. B. Cross, 
 V. Bakken, C. Adamo, J. Jaramillo, R. Gomperts, R. E. Stratmann, 
 O. Yazyev, A. J. Austin, R. Cammi, C. Pomelli, J. W. Ochterski, 
 R. L. Martin, K. Morokuma, V. G. Zakrzewski, G. A. Voth, 
 P. Salvador, J. J. Dannenberg, S. Dapprich, A. D. Daniels, 
 O. Farkas, J. B. Foresman, J. V. Ortiz, J. Cioslowski, 
 and D. J. Fox, Gaussian, Inc., Wallingford CT, 2013.
 
 ******************************************
 Gaussian 09:  ES64L-G09RevE.01 30-Nov-2015
                21-Feb-2017 
 ******************************************
 %NProcShared=8
 Will use up to    8 processors via shared memory.
 ---------------------
 #n MP2/6-31G(d,p) Opt
 ---------------------
 1/18=20,19=15,38=1/1,3;
 2/9=110,12=2,17=6,18=5,40=1/2;
 3/5=1,6=6,7=101,11=9,16=1,25=1,30=1,71=1/1,2,3;
 4//1;
 5/5=2,38=5/2;
 8/6=4,10=2/1;
 9/15=2,16=-3/6;
 10/5=1/2;
 6/7=2,8=2,9=2,10=2/1;
 7/12=2/1,2,3,16;
 1/18=20,19=15/3(2);
 2/9=110/2;
 99//99;
 2/9=110/2;
 3/5=1,6=6,7=101,11=9,16=1,25=1,30=1,71=1/1,2,3;
 4/5=5,16=3,69=1/1;
 5/5=2,38=5/2;
 8/6=4,10=2/1;
 9/15=2,16=-3/6;
 10/5=1/2;
 7/12=2/1,2,3,16;
 1/18=20,19=15/3(-8);
 2/9=110/2;
 6/7=2,8=2,9=2,10=2/1;
 99//99;
 -----------------
 Ethyne MP2 6-31dp
 -----------------
 Symbolic Z-matrix:
 Charge =  0 Multiplicity = 1
 C                    -8.44511   3.24911   0. 
 C                    -7.23998   3.27154   0. 
 H                    -9.50331   3.22942   0. 
 H                    -6.18178   3.29124   0. 
 

 GradGradGradGradGradGradGradGradGradGradGradGradGradGradGradGradGradGrad
 Berny optimization.
 Initialization pass.
                           ----------------------------
                           !    Initial Parameters    !
                           ! (Angstroms and Degrees)  !
 --------------------------                            --------------------------
 ! Name  Definition              Value          Derivative Info.                !
 --------------------------------------------------------------------------------
 ! R1    R(1,2)                  1.2053         estimate D2E/DX2                !
 ! R2    R(1,3)                  1.0584         estimate D2E/DX2                !
 ! R3    R(2,4)                  1.0584         estimate D2E/DX2                !
 ! A1    L(2,1,3,-3,-1)        180.0003         estimate D2E/DX2                !
 ! A2    L(1,2,4,-3,-1)        179.9997         estimate D2E/DX2                !
 ! A3    L(2,1,3,-2,-2)        180.0            estimate D2E/DX2                !
 ! A4    L(1,2,4,-2,-2)        180.0            estimate D2E/DX2                !
 --------------------------------------------------------------------------------
 Trust Radius=3.00D-01 FncErr=1.00D-07 GrdErr=1.00D-07
 Number of steps in this run=     20 maximum allowed number of steps=    100.
 GradGradGradGradGradGradGradGradGradGradGradGradGradGradGradGradGradGrad

                          Input orientation:                          
 ---------------------------------------------------------------------
 Center     Atomic      Atomic             Coordinates (Angstroms)
 Number     Number       Type             X           Y           Z
 ---------------------------------------------------------------------
      1          6           0       -8.445110    3.249110    0.000000
      2          6           0       -7.239980    3.271540    0.000000
      3          1           0       -9.503310    3.229420    0.000000
      4          1           0       -6.181780    3.291240    0.000000
 ---------------------------------------------------------------------
                    Distance matrix (angstroms):
                    1          2          3          4
     1  C    0.000000
     2  C    1.205339   0.000000
     3  H    1.058383   2.263722   0.000000
     4  H    2.263722   1.058383   3.322105   0.000000
 Stoichiometry    C2H2
 Framework group  D*H[C*(C.C),X(H2)]
 NUMDOF-- UNRECOGNIZED SYMMETRIC SUBSPACE, ICHAR= X   "
 Deg. of freedom    -1
 Full point group                         NOp   0
 Largest Abelian subgroup         D2H     NOp   8
 Largest concise Abelian subgroup C2      NOp   2
                         Standard orientation:                         
 ---------------------------------------------------------------------
 Center     Atomic      Atomic             Coordinates (Angstroms)
 Number     Number       Type             X           Y           Z
 ---------------------------------------------------------------------
      1          6           0        0.000000    0.000000   -0.602669
      2          6           0        0.000000    0.000000    0.602669
      3          1           0        0.000000    0.000000   -1.661053
      4          1           0        0.000000    0.000000    1.661053
 ---------------------------------------------------------------------
 Rotational constants (GHZ):      0.0000000     35.3946027     35.3946027
 Standard basis: 6-31G(d,p) (6D, 7F)
 There are    11 symmetry adapted cartesian basis functions of AG  symmetry.
 There are     1 symmetry adapted cartesian basis functions of B1G symmetry.
 There are     4 symmetry adapted cartesian basis functions of B2G symmetry.
 There are     4 symmetry adapted cartesian basis functions of B3G symmetry.
 There are     1 symmetry adapted cartesian basis functions of AU  symmetry.
 There are    11 symmetry adapted cartesian basis functions of B1U symmetry.
 There are     4 symmetry adapted cartesian basis functions of B2U symmetry.
 There are     4 symmetry adapted cartesian basis functions of B3U symmetry.
 There are    11 symmetry adapted basis functions of AG  symmetry.
 There are     1 symmetry adapted basis functions of B1G symmetry.
 There are     4 symmetry adapted basis functions of B2G symmetry.
 There are     4 symmetry adapted basis functions of B3G symmetry.
 There are     1 symmetry adapted basis functions of AU  symmetry.
 There are    11 symmetry adapted basis functions of B1U symmetry.
 There are     4 symmetry adapted basis functions of B2U symmetry.
 There are     4 symmetry adapted basis functions of B3U symmetry.
    40 basis functions,    70 primitive gaussians,    40 cartesian basis functions
     7 alpha electrons        7 beta electrons
       nuclear repulsion energy        24.7692980314 Hartrees.
 NAtoms=    4 NActive=    4 NUniq=    2 SFac= 4.00D+00 NAtFMM=   60 NAOKFM=F Big=F
 Integral buffers will be    131072 words long.
 Raffenetti 1 integral format.
 Two-electron integral symmetry is turned on.
 One-electron integrals computed using PRISM.
 NBasis=    40 RedAO= T EigKep=  1.44D-03  NBF=    11     1     4     4     1    11     4     4
 NBsUse=    40 1.00D-06 EigRej= -1.00D+00 NBFU=    11     1     4     4     1    11     4     4
 ExpMin= 1.61D-01 ExpMax= 3.05D+03 ExpMxC= 4.57D+02 IAcc=1 IRadAn=         1 AccDes= 0.00D+00
 Harris functional with IExCor=  205 and IRadAn=       1 diagonalized for initial guess.
 HarFok:  IExCor=  205 AccDes= 0.00D+00 IRadAn=         1 IDoV= 1 UseB2=F ITyADJ=14
 ICtDFT=  3500011 ScaDFX=  1.000000  1.000000  1.000000  1.000000
 FoFCou: FMM=F IPFlag=           0 FMFlag=      100000 FMFlg1=           0
         NFxFlg=           0 DoJE=T BraDBF=F KetDBF=T FulRan=T
         wScrn=  0.000000 ICntrl=     500 IOpCl=  0 I1Cent=   200000004 NGrid=           0
         NMat0=    1 NMatS0=      1 NMatT0=    0 NMatD0=    1 NMtDS0=    0 NMtDT0=    0
 Petite list used in FoFCou.
 Initial guess orbital symmetries:
       Occupied  (SGG) (SGU) (SGG) (SGU) (SGG) (PIU) (PIU)
       Virtual   (PIG) (PIG) (SGU) (SGG) (SGU) (SGG) (PIU) (PIU)
                 (PIG) (PIG) (SGU) (SGG) (SGG) (SGU) (PIU) (PIU)
                 (DLTG) (DLTG) (SGU) (DLTU) (DLTU) (PIG) (PIG)
                 (SGG) (PIU) (PIU) (SGU) (PIG) (PIG) (SGG) (SGU)
                 (SGG) (SGU)
 The electronic state of the initial guess is 1-SGG.
 Keep R1 ints in memory in symmetry-blocked form, NReq=1197724.
 Requested convergence on RMS density matrix=1.00D-08 within 128 cycles.
 Requested convergence on MAX density matrix=1.00D-06.
 Requested convergence on             energy=1.00D-06.
 No special actions if energy rises.
 SCF Done:  E(RHF) =  -76.8209913400     A.U. after    9 cycles
            NFock=  9  Conv=0.80D-09     -V/T= 2.0025
 ExpMin= 1.61D-01 ExpMax= 3.05D+03 ExpMxC= 4.57D+02 IAcc=3 IRadAn=         5 AccDes= 0.00D+00
 HarFok:  IExCor=  205 AccDes= 0.00D+00 IRadAn=         5 IDoV=-2 UseB2=F ITyADJ=14
 ICtDFT= 12500011 ScaDFX=  1.000000  1.000000  1.000000  1.000000
 Range of M.O.s used for correlation:     3    40
 NBasis=    40 NAE=     7 NBE=     7 NFC=     2 NFV=     0
 NROrb=     38 NOA=     5 NOB=     5 NVA=    33 NVB=    33

 **** Warning!!: The largest alpha MO coefficient is  0.14323201D+02

 Fully direct method using O(ONN) memory.
 JobTyp=1 Pass  1:  I=   3 to   7 NPSUse=  2 ParTrn=F ParDer=T DoDerP=T.
 Spin components of T(2) and E(2):
     alpha-alpha T2 =       0.1246295722D-01 E2=     -0.3083732871D-01
     alpha-beta  T2 =       0.7754167667D-01 E2=     -0.1986479853D+00
     beta-beta   T2 =       0.1246295722D-01 E2=     -0.3083732871D-01
 ANorm=    0.1049984567D+01
 E2 =    -0.2603226427D+00 EUMP2 =    -0.77081313982771D+02
          IDoAtm=1111
          Differentiating once with respect to electric field.
                with respect to dipole field.
          Differentiating once with respect to nuclear coordinates.
 Keep R1 ints in memory in symmetry-blocked form, NReq=1181366.
          There are     1 degrees of freedom in the 1st order CPHF.  IDoFFX=0 NUNeed=     1.
 LinEq1:  Iter=  0 NonCon=     1 RMS=8.73D-03 Max=7.57D-02 NDo=     1
 AX will form     1 AO Fock derivatives at one time.
 LinEq1:  Iter=  1 NonCon=     1 RMS=2.07D-03 Max=2.19D-02 NDo=     1
 LinEq1:  Iter=  2 NonCon=     1 RMS=3.73D-04 Max=2.84D-03 NDo=     1
 LinEq1:  Iter=  3 NonCon=     1 RMS=4.99D-05 Max=3.98D-04 NDo=     1
 LinEq1:  Iter=  4 NonCon=     1 RMS=3.12D-06 Max=1.83D-05 NDo=     1
 LinEq1:  Iter=  5 NonCon=     1 RMS=2.38D-07 Max=2.11D-06 NDo=     1
 LinEq1:  Iter=  6 NonCon=     1 RMS=1.10D-08 Max=5.39D-08 NDo=     1
 LinEq1:  Iter=  7 NonCon=     1 RMS=7.15D-10 Max=6.67D-09 NDo=     1
 LinEq1:  Iter=  8 NonCon=     0 RMS=5.59D-11 Max=3.42D-10 NDo=     1
 Linear equations converged to 1.000D-10 1.000D-09 after     8 iterations.
 End of Minotr F.D. properties file   721 does not exist.
 End of Minotr F.D. properties file   722 does not exist.
 End of Minotr F.D. properties file   788 does not exist.

 **********************************************************************

            Population analysis using the SCF density.

 **********************************************************************

 Orbital symmetries:
       Occupied  (SGG) (SGU) (SGG) (SGU) (SGG) (PIU) (PIU)
       Virtual   (PIG) (PIG) (SGU) (SGG) (SGU) (SGG) (PIU) (PIU)
                 (PIG) (PIG) (SGU) (SGG) (SGG) (SGU) (PIU) (PIU)
                 (SGU) (DLTG) (DLTG) (PIG) (PIG) (DLTU) (DLTU)
                 (SGG) (PIU) (PIU) (SGU) (PIG) (PIG) (SGG) (SGU)
                 (SGG) (SGU)
 The electronic state is 1-SGG.
 Alpha  occ. eigenvalues --  -11.23997 -11.23635  -1.01903  -0.76132  -0.67131
 Alpha  occ. eigenvalues --   -0.39990  -0.39990
 Alpha virt. eigenvalues --    0.21421   0.21421   0.25040   0.29715   0.61458
 Alpha virt. eigenvalues --    0.64460   0.74714   0.74714   0.90713   0.90713
 Alpha virt. eigenvalues --    0.93939   1.03020   1.28152   1.53652   1.65073
 Alpha virt. eigenvalues --    1.65073   1.70672   1.81767   1.81767   2.22961
 Alpha virt. eigenvalues --    2.22961   2.25038   2.25038   2.57602   2.70522
 Alpha virt. eigenvalues --    2.70522   3.11265   3.38900   3.38900   3.74237
 Alpha virt. eigenvalues --    4.22939   5.02110   5.81846
          Condensed to atoms (all electrons):
               1          2          3          4
     1  C    4.773655   1.104624   0.361983  -0.004705
     2  C    1.104624   4.773655  -0.004705   0.361983
     3  H    0.361983  -0.004705   0.405413   0.001752
     4  H   -0.004705   0.361983   0.001752   0.405413
 Mulliken charges:
               1
     1  C   -0.235557
     2  C   -0.235557
     3  H    0.235557
     4  H    0.235557
 Sum of Mulliken charges =   0.00000
 Mulliken charges with hydrogens summed into heavy atoms:
               1
     1  C    0.000000
     2  C    0.000000
 Electronic spatial extent (au):  <R**2>=             60.0489
 Charge=              0.0000 electrons
 Dipole moment (field-independent basis, Debye):
    X=              0.0000    Y=              0.0000    Z=              0.0000  Tot=              0.0000
 Quadrupole moment (field-independent basis, Debye-Ang):
   XX=            -13.3891   YY=            -13.3891   ZZ=             -6.5498
   XY=              0.0000   XZ=              0.0000   YZ=              0.0000
 Traceless Quadrupole moment (field-independent basis, Debye-Ang):
   XX=             -2.2798   YY=             -2.2798   ZZ=              4.5595
   XY=              0.0000   XZ=              0.0000   YZ=              0.0000
 Octapole moment (field-independent basis, Debye-Ang**2):
  XXX=              0.0000  YYY=              0.0000  ZZZ=              0.0000  XYY=              0.0000
  XXY=              0.0000  XXZ=              0.0000  XZZ=              0.0000  YZZ=              0.0000
  YYZ=              0.0000  XYZ=              0.0000
 Hexadecapole moment (field-independent basis, Debye-Ang**3):
 XXXX=            -14.1524 YYYY=            -14.1524 ZZZZ=            -35.6965 XXXY=              0.0000
 XXXZ=              0.0000 YYYX=              0.0000 YYYZ=              0.0000 ZZZX=              0.0000
 ZZZY=              0.0000 XXYY=             -4.7175 XXZZ=            -11.7649 YYZZ=            -11.7649
 XXYZ=              0.0000 YYXZ=              0.0000 ZZXY=              0.0000
 N-N= 2.476929803136D+01 E-N=-2.283561780717D+02  KE= 7.663114396667D+01
 Symmetry AG   KE= 3.795453282980D+01
 Symmetry B1G  KE= 2.010818913932D-34
 Symmetry B2G  KE= 1.727218090278D-32
 Symmetry B3G  KE= 2.012590099932D-32
 Symmetry AU   KE= 3.450004287933D-34
 Symmetry B1U  KE= 3.447476013218D+01
 Symmetry B2U  KE= 2.100925502348D+00
 Symmetry B3U  KE= 2.100925502348D+00
 Calling FoFJK, ICntrl=  10002127 FMM=F ISym2X=1 I1Cent= 0 IOpClX= 0 NMat=1 NMatS=1 NMatT=0.
 ***** Axes restored to original set *****
 -------------------------------------------------------------------
 Center     Atomic                   Forces (Hartrees/Bohr)
 Number     Number              X              Y              Z
 -------------------------------------------------------------------
      1        6          -0.023437119   -0.000436211    0.000000000
      2        6           0.023437119    0.000436211    0.000000000
      3        1          -0.003261294   -0.000060699    0.000000000
      4        1           0.003261294    0.000060699    0.000000000
 -------------------------------------------------------------------
 Cartesian Forces:  Max     0.023437119 RMS     0.009662026

 GradGradGradGradGradGradGradGradGradGradGradGradGradGradGradGradGradGrad
 Berny optimization.
 FormGI is forming the generalized inverse of G from B-inverse, IUseBI=4.
 Internal  Forces:  Max     0.026703036 RMS     0.010242290
 Search for a local minimum.
 Step number   1 out of a maximum of   20
 All quantities printed in internal units (Hartrees-Bohrs-Radians)
 Mixed Optimization -- RFO/linear search
 Second derivative matrix not updated -- first step.
 The second derivative matrix:
                          R1        R2        R3        A1        A2
           R1           1.02186
           R2           0.00000   0.38738
           R3           0.00000   0.00000   0.38738
           A1           0.00000   0.00000   0.00000   0.00653
           A2           0.00000   0.00000   0.00000   0.00000   0.00653
           A3           0.00000   0.00000   0.00000   0.00000   0.00000
           A4           0.00000   0.00000   0.00000   0.00000   0.00000
                          A3        A4
           A3           0.00653
           A4           0.00000   0.00653
 ITU=  0
     Eigenvalues ---    0.00653   0.00653   0.00653   0.00653   0.38738
     Eigenvalues ---    0.38738   1.02186
 RFO step:  Lambda=-7.52112786D-04 EMin= 6.53060099D-03
 Linear search not attempted -- first point.
 Iteration  1 RMS(Cart)=  0.01342722 RMS(Int)=  0.00000000
 Iteration  2 RMS(Cart)=  0.00000000 RMS(Int)=  0.00000001
 ClnCor:  largest displacement from symmetrization is 4.45D-13 for atom     1.
 Variable       Old X    -DE/DX   Delta X   Delta X   Delta X     New X
                                 (Linear)    (Quad)   (Total)
    R1        2.27776   0.02670   0.00000   0.02611   0.02611   2.30387
    R2        2.00005   0.00326   0.00000   0.00840   0.00840   2.00846
    R3        2.00005   0.00326   0.00000   0.00840   0.00840   2.00846
    A1        3.14159   0.00000   0.00000   0.00000   0.00000   3.14159
    A2        3.14159   0.00000   0.00000   0.00000   0.00000   3.14159
    A3        3.14159   0.00000   0.00000   0.00000   0.00000   3.14159
    A4        3.14159   0.00000   0.00000   0.00000   0.00000   3.14159
         Item               Value     Threshold  Converged?
 Maximum Force            0.026703     0.000450     NO 
 RMS     Force            0.010242     0.000300     NO 
 Maximum Displacement     0.021457     0.001800     NO 
 RMS     Displacement     0.013427     0.001200     NO 
 Predicted change in Energy=-3.763662D-04
 GradGradGradGradGradGradGradGradGradGradGradGradGradGradGradGradGradGrad

                          Input orientation:                          
 ---------------------------------------------------------------------
 Center     Atomic      Atomic             Coordinates (Angstroms)
 Number     Number       Type             X           Y           Z
 ---------------------------------------------------------------------
      1          6           0       -8.452018    3.248982    0.000000
      2          6           0       -7.233072    3.271669    0.000000
      3          1           0       -9.514664    3.229204    0.000000
      4          1           0       -6.170426    3.291447    0.000000
 ---------------------------------------------------------------------
                    Distance matrix (angstroms):
                    1          2          3          4
     1  C    0.000000
     2  C    1.219157   0.000000
     3  H    1.062830   2.281987   0.000000
     4  H    2.281987   1.062830   3.344818   0.000000
 Stoichiometry    C2H2
 Framework group  D*H[C*(HC.CH)]
 Deg. of freedom     2
 Full point group                 D*H     NOp   8
 Omega: Change in point group or standard orientation.

 Old FWG=D*H  [C*(C1.C1),X(H2)]
 New FWG=D*H  [C*(H1C1.C1H1)]
 Largest Abelian subgroup         D2H     NOp   8
 Largest concise Abelian subgroup C2      NOp   2
                         Standard orientation:                         
 ---------------------------------------------------------------------
 Center     Atomic      Atomic             Coordinates (Angstroms)
 Number     Number       Type             X           Y           Z
 ---------------------------------------------------------------------
      1          6           0        0.000000    0.000000   -0.609578
      2          6           0        0.000000    0.000000    0.609578
      3          1           0        0.000000    0.000000   -1.672409
      4          1           0        0.000000    0.000000    1.672409
 ---------------------------------------------------------------------
 Rotational constants (GHZ):      0.0000000     34.7202602     34.7202602
 Standard basis: 6-31G(d,p) (6D, 7F)
 There are    11 symmetry adapted cartesian basis functions of AG  symmetry.
 There are     1 symmetry adapted cartesian basis functions of B1G symmetry.
 There are     4 symmetry adapted cartesian basis functions of B2G symmetry.
 There are     4 symmetry adapted cartesian basis functions of B3G symmetry.
 There are     1 symmetry adapted cartesian basis functions of AU  symmetry.
 There are    11 symmetry adapted cartesian basis functions of B1U symmetry.
 There are     4 symmetry adapted cartesian basis functions of B2U symmetry.
 There are     4 symmetry adapted cartesian basis functions of B3U symmetry.
 There are    11 symmetry adapted basis functions of AG  symmetry.
 There are     1 symmetry adapted basis functions of B1G symmetry.
 There are     4 symmetry adapted basis functions of B2G symmetry.
 There are     4 symmetry adapted basis functions of B3G symmetry.
 There are     1 symmetry adapted basis functions of AU  symmetry.
 There are    11 symmetry adapted basis functions of B1U symmetry.
 There are     4 symmetry adapted basis functions of B2U symmetry.
 There are     4 symmetry adapted basis functions of B3U symmetry.
    40 basis functions,    70 primitive gaussians,    40 cartesian basis functions
     7 alpha electrons        7 beta electrons
       nuclear repulsion energy        24.5415201449 Hartrees.
 NAtoms=    4 NActive=    4 NUniq=    2 SFac= 4.00D+00 NAtFMM=   60 NAOKFM=F Big=F
 Integral buffers will be    131072 words long.
 Raffenetti 1 integral format.
 Two-electron integral symmetry is turned on.
 One-electron integrals computed using PRISM.
 NBasis=    40 RedAO= T EigKep=  1.56D-03  NBF=    11     1     4     4     1    11     4     4
 NBsUse=    40 1.00D-06 EigRej= -1.00D+00 NBFU=    11     1     4     4     1    11     4     4
 Initial guess from the checkpoint file:  "/scr/Gau-27153.chk"
 B after Tr=     0.000000    0.000000    0.000000
         Rot=    1.000000    0.000000    0.000000    0.000000 Ang=   0.00 deg.
 Initial guess orbital symmetries:
       Occupied  (SGG) (SGU) (SGG) (SGU) (SGG) (PIU) (PIU)
       Virtual   (SGG) (SGG) (SGG) (SGG) (SGG) (DLTG) (SGG) (SGG)
                 (DLTG) (PIG) (PIG) (PIG) (PIG) (PIG) (PIG) (PIG)
                 (PIG) (DLTU) (SGU) (SGU) (SGU) (DLTU) (SGU) (SGU)
                 (SGU) (SGU) (SGU) (PIU) (PIU) (PIU) (PIU) (PIU)
                 (PIU)
 ExpMin= 1.61D-01 ExpMax= 3.05D+03 ExpMxC= 4.57D+02 IAcc=1 IRadAn=         1 AccDes= 0.00D+00
 Harris functional with IExCor=  205 and IRadAn=       1 diagonalized for initial guess.
 HarFok:  IExCor=  205 AccDes= 0.00D+00 IRadAn=         1 IDoV= 1 UseB2=F ITyADJ=14
 ICtDFT=  3500011 ScaDFX=  1.000000  1.000000  1.000000  1.000000
 FoFCou: FMM=F IPFlag=           0 FMFlag=      100000 FMFlg1=           0
         NFxFlg=           0 DoJE=T BraDBF=F KetDBF=T FulRan=T
         wScrn=  0.000000 ICntrl=     500 IOpCl=  0 I1Cent=   200000004 NGrid=           0
         NMat0=    1 NMatS0=      1 NMatT0=    0 NMatD0=    1 NMtDS0=    0 NMtDT0=    0
 Petite list used in FoFCou.
 Keep R1 ints in memory in symmetry-blocked form, NReq=1197724.
 Requested convergence on RMS density matrix=1.00D-08 within 128 cycles.
 Requested convergence on MAX density matrix=1.00D-06.
 Requested convergence on             energy=1.00D-06.
 No special actions if energy rises.
 SCF Done:  E(RHF) =  -76.8193625812     A.U. after    7 cycles
            NFock=  7  Conv=0.69D-08     -V/T= 2.0035
 ExpMin= 1.61D-01 ExpMax= 3.05D+03 ExpMxC= 4.57D+02 IAcc=3 IRadAn=         5 AccDes= 0.00D+00
 HarFok:  IExCor=  205 AccDes= 0.00D+00 IRadAn=         5 IDoV=-2 UseB2=F ITyADJ=14
 ICtDFT= 12500011 ScaDFX=  1.000000  1.000000  1.000000  1.000000
 Range of M.O.s used for correlation:     3    40
 NBasis=    40 NAE=     7 NBE=     7 NFC=     2 NFV=     0
 NROrb=     38 NOA=     5 NOB=     5 NVA=    33 NVB=    33

 **** Warning!!: The largest alpha MO coefficient is  0.13693428D+02

 Fully direct method using O(ONN) memory.
 JobTyp=1 Pass  1:  I=   3 to   7 NPSUse=  2 ParTrn=F ParDer=T DoDerP=T.
 Spin components of T(2) and E(2):
     alpha-alpha T2 =       0.1274454343D-01 E2=     -0.3109638193D-01
     alpha-beta  T2 =       0.7920169193D-01 E2=     -0.2001117759D+00
     beta-beta   T2 =       0.1274454343D-01 E2=     -0.3109638193D-01
 ANorm=    0.1051042710D+01
 E2 =    -0.2623045398D+00 EUMP2 =    -0.77081667120962D+02
          IDoAtm=1111
          Differentiating once with respect to electric field.
                with respect to dipole field.
          Differentiating once with respect to nuclear coordinates.
 Keep R1 ints in memory in symmetry-blocked form, NReq=1181366.
          There are     1 degrees of freedom in the 1st order CPHF.  IDoFFX=0 NUNeed=     1.
 LinEq1:  Iter=  0 NonCon=     1 RMS=8.99D-03 Max=7.85D-02 NDo=     1
 AX will form     1 AO Fock derivatives at one time.
 LinEq1:  Iter=  1 NonCon=     1 RMS=2.15D-03 Max=2.27D-02 NDo=     1
 LinEq1:  Iter=  2 NonCon=     1 RMS=3.82D-04 Max=2.94D-03 NDo=     1
 LinEq1:  Iter=  3 NonCon=     1 RMS=5.10D-05 Max=4.05D-04 NDo=     1
 LinEq1:  Iter=  4 NonCon=     1 RMS=3.19D-06 Max=1.89D-05 NDo=     1
 LinEq1:  Iter=  5 NonCon=     1 RMS=2.42D-07 Max=2.17D-06 NDo=     1
 LinEq1:  Iter=  6 NonCon=     1 RMS=1.11D-08 Max=5.44D-08 NDo=     1
 LinEq1:  Iter=  7 NonCon=     1 RMS=6.95D-10 Max=6.58D-09 NDo=     1
 LinEq1:  Iter=  8 NonCon=     0 RMS=5.64D-11 Max=3.44D-10 NDo=     1
 Linear equations converged to 1.000D-10 1.000D-09 after     8 iterations.
 End of Minotr F.D. properties file   721 does not exist.
 End of Minotr F.D. properties file   722 does not exist.
 End of Minotr F.D. properties file   788 does not exist.
 Calling FoFJK, ICntrl=  10002127 FMM=F ISym2X=1 I1Cent= 0 IOpClX= 0 NMat=1 NMatS=1 NMatT=0.
 ***** Axes restored to original set *****
 -------------------------------------------------------------------
 Center     Atomic                   Forces (Hartrees/Bohr)
 Number     Number              X              Y              Z
 -------------------------------------------------------------------
      1        6           0.000899572    0.000016743    0.000000000
      2        6          -0.000899572   -0.000016743    0.000000000
      3        1           0.000279057    0.000005194    0.000000000
      4        1          -0.000279057   -0.000005194    0.000000000
 -------------------------------------------------------------------
 Cartesian Forces:  Max     0.000899572 RMS     0.000384580

 GradGradGradGradGradGradGradGradGradGradGradGradGradGradGradGradGradGrad
 Berny optimization.
 Using GEDIIS/GDIIS optimizer.
 Internal  Forces:  Max     0.001178833 RMS     0.000469871
 Search for a local minimum.
 Step number   2 out of a maximum of   20
 All quantities printed in internal units (Hartrees-Bohrs-Radians)
 Mixed Optimization -- En-DIIS/RFO-DIIS
 Update second derivatives using D2CorX and points    1    2
 DE= -3.53D-04 DEPred=-3.76D-04 R= 9.38D-01
 TightC=F SS=  1.41D+00  RLast= 2.87D-02 DXNew= 5.0454D-01 8.6071D-02
 Trust test= 9.38D-01 RLast= 2.87D-02 DXMaxT set to 3.00D-01
 The second derivative matrix:
                          R1        R2        R3        A1        A2
           R1           1.06147
           R2           0.00976   0.38919
           R3           0.00976   0.00182   0.38919
           A1           0.00000   0.00000   0.00000   0.00653
           A2           0.00000   0.00000   0.00000   0.00000   0.00653
           A3           0.00000   0.00000   0.00000   0.00000   0.00000
           A4           0.00000   0.00000   0.00000   0.00000   0.00000
                          A3        A4
           A3           0.00653
           A4           0.00000   0.00653
 ITU=  1  0
 Use linear search instead of GDIIS.
     Eigenvalues ---    0.00653   0.00653   0.00653   0.00653   0.38738
     Eigenvalues ---    0.39073   1.06175
 RFO step:  Lambda=-9.05106846D-08 EMin= 6.53060099D-03
 Quartic linear search produced a step of -0.04679.
 Iteration  1 RMS(Cart)=  0.00075399 RMS(Int)=  0.00000000
 Iteration  2 RMS(Cart)=  0.00000000 RMS(Int)=  0.00000001
 ClnCor:  largest displacement from symmetrization is 9.71D-13 for atom     1.
 Variable       Old X    -DE/DX   Delta X   Delta X   Delta X     New X
                                 (Linear)    (Quad)   (Total)
    R1        2.30387  -0.00118  -0.00122   0.00008  -0.00114   2.30273
    R2        2.00846  -0.00028  -0.00039  -0.00033  -0.00072   2.00774
    R3        2.00846  -0.00028  -0.00039  -0.00033  -0.00072   2.00774
    A1        3.14159   0.00000   0.00000   0.00000   0.00000   3.14159
    A2        3.14159   0.00000   0.00000   0.00000   0.00000   3.14159
    A3        3.14159   0.00000   0.00000   0.00000   0.00000   3.14159
    A4        3.14159   0.00000   0.00000   0.00000   0.00000   3.14159
         Item               Value     Threshold  Converged?
 Maximum Force            0.001179     0.000450     NO 
 RMS     Force            0.000470     0.000300     NO 
 Maximum Displacement     0.001290     0.001800     YES
 RMS     Displacement     0.000754     0.001200     YES
 Predicted change in Energy=-8.373442D-07
 GradGradGradGradGradGradGradGradGradGradGradGradGradGradGradGradGradGrad

                          Input orientation:                          
 ---------------------------------------------------------------------
 Center     Atomic      Atomic             Coordinates (Angstroms)
 Number     Number       Type             X           Y           Z
 ---------------------------------------------------------------------
      1          6           0       -8.451717    3.248988    0.000000
      2          6           0       -7.233373    3.271664    0.000000
      3          1           0       -9.513981    3.229217    0.000000
      4          1           0       -6.171109    3.291434    0.000000
 ---------------------------------------------------------------------
                    Distance matrix (angstroms):
                    1          2          3          4
     1  C    0.000000
     2  C    1.218555   0.000000
     3  H    1.062449   2.281003   0.000000
     4  H    2.281003   1.062449   3.343452   0.000000
 Stoichiometry    C2H2
 Framework group  D*H[C*(HC.CH)]
 Deg. of freedom     2
 Full point group                 D*H     NOp   8
 Largest Abelian subgroup         D2H     NOp   8
 Largest concise Abelian subgroup C2      NOp   2
                         Standard orientation:                         
 ---------------------------------------------------------------------
 Center     Atomic      Atomic             Coordinates (Angstroms)
 Number     Number       Type             X           Y           Z
 ---------------------------------------------------------------------
      1          6           0        0.000000    0.000000   -0.609277
      2          6           0        0.000000    0.000000    0.609277
      3          1           0        0.000000    0.000000   -1.671726
      4          1           0        0.000000    0.000000    1.671726
 ---------------------------------------------------------------------
 Rotational constants (GHZ):      0.0000000     34.7522900     34.7522900
 Standard basis: 6-31G(d,p) (6D, 7F)
 There are    11 symmetry adapted cartesian basis functions of AG  symmetry.
 There are     1 symmetry adapted cartesian basis functions of B1G symmetry.
 There are     4 symmetry adapted cartesian basis functions of B2G symmetry.
 There are     4 symmetry adapted cartesian basis functions of B3G symmetry.
 There are     1 symmetry adapted cartesian basis functions of AU  symmetry.
 There are    11 symmetry adapted cartesian basis functions of B1U symmetry.
 There are     4 symmetry adapted cartesian basis functions of B2U symmetry.
 There are     4 symmetry adapted cartesian basis functions of B3U symmetry.
 There are    11 symmetry adapted basis functions of AG  symmetry.
 There are     1 symmetry adapted basis functions of B1G symmetry.
 There are     4 symmetry adapted basis functions of B2G symmetry.
 There are     4 symmetry adapted basis functions of B3G symmetry.
 There are     1 symmetry adapted basis functions of AU  symmetry.
 There are    11 symmetry adapted basis functions of B1U symmetry.
 There are     4 symmetry adapted basis functions of B2U symmetry.
 There are     4 symmetry adapted basis functions of B3U symmetry.
    40 basis functions,    70 primitive gaussians,    40 cartesian basis functions
     7 alpha electrons        7 beta electrons
       nuclear repulsion energy        24.5526577497 Hartrees.
 NAtoms=    4 NActive=    4 NUniq=    2 SFac= 4.00D+00 NAtFMM=   60 NAOKFM=F Big=F
 Integral buffers will be    131072 words long.
 Raffenetti 1 integral format.
 Two-electron integral symmetry is turned on.
 One-electron integrals computed using PRISM.
 NBasis=    40 RedAO= T EigKep=  1.56D-03  NBF=    11     1     4     4     1    11     4     4
 NBsUse=    40 1.00D-06 EigRej= -1.00D+00 NBFU=    11     1     4     4     1    11     4     4
 Initial guess from the checkpoint file:  "/scr/Gau-27153.chk"
 B after Tr=     0.000000    0.000000    0.000000
         Rot=    1.000000    0.000000    0.000000    0.000000 Ang=   0.00 deg.
 Initial guess orbital symmetries:
       Occupied  (SGG) (SGU) (SGG) (SGU) (SGG) (PIU) (PIU)
       Virtual   (SGG) (SGG) (SGG) (SGG) (SGG) (DLTG) (SGG) (SGG)
                 (DLTG) (PIG) (PIG) (PIG) (PIG) (PIG) (PIG) (PIG)
                 (PIG) (DLTU) (SGU) (SGU) (SGU) (DLTU) (SGU) (SGU)
                 (SGU) (SGU) (SGU) (PIU) (PIU) (PIU) (PIU) (PIU)
                 (PIU)
 Keep R1 ints in memory in symmetry-blocked form, NReq=1197724.
 Requested convergence on RMS density matrix=1.00D-08 within 128 cycles.
 Requested convergence on MAX density matrix=1.00D-06.
 Requested convergence on             energy=1.00D-06.
 No special actions if energy rises.
 SCF Done:  E(RHF) =  -76.8194540273     A.U. after    6 cycles
            NFock=  6  Conv=0.26D-08     -V/T= 2.0035
 ExpMin= 1.61D-01 ExpMax= 3.05D+03 ExpMxC= 4.57D+02 IAcc=3 IRadAn=         5 AccDes= 0.00D+00
 HarFok:  IExCor=  205 AccDes= 0.00D+00 IRadAn=         5 IDoV=-2 UseB2=F ITyADJ=14
 ICtDFT= 12500011 ScaDFX=  1.000000  1.000000  1.000000  1.000000
 Range of M.O.s used for correlation:     3    40
 NBasis=    40 NAE=     7 NBE=     7 NFC=     2 NFV=     0
 NROrb=     38 NOA=     5 NOB=     5 NVA=    33 NVB=    33

 **** Warning!!: The largest alpha MO coefficient is  0.13719339D+02

 Fully direct method using O(ONN) memory.
 JobTyp=1 Pass  1:  I=   3 to   7 NPSUse=  2 ParTrn=F ParDer=T DoDerP=T.
 Spin components of T(2) and E(2):
     alpha-alpha T2 =       0.1273175641D-01 E2=     -0.3108483218D-01
     alpha-beta  T2 =       0.7912390086D-01 E2=     -0.2000442911D+00
     beta-beta   T2 =       0.1273175641D-01 E2=     -0.3108483218D-01
 ANorm=    0.1050993536D+01
 E2 =    -0.2622139555D+00 EUMP2 =    -0.77081667982787D+02
          IDoAtm=1111
          Differentiating once with respect to electric field.
                with respect to dipole field.
          Differentiating once with respect to nuclear coordinates.
 Keep R1 ints in memory in symmetry-blocked form, NReq=1181366.
          There are     1 degrees of freedom in the 1st order CPHF.  IDoFFX=0 NUNeed=     1.
 LinEq1:  Iter=  0 NonCon=     1 RMS=8.98D-03 Max=7.84D-02 NDo=     1
 AX will form     1 AO Fock derivatives at one time.
 LinEq1:  Iter=  1 NonCon=     1 RMS=2.14D-03 Max=2.27D-02 NDo=     1
 LinEq1:  Iter=  2 NonCon=     1 RMS=3.82D-04 Max=2.93D-03 NDo=     1
 LinEq1:  Iter=  3 NonCon=     1 RMS=5.09D-05 Max=4.05D-04 NDo=     1
 LinEq1:  Iter=  4 NonCon=     1 RMS=3.19D-06 Max=1.89D-05 NDo=     1
 LinEq1:  Iter=  5 NonCon=     1 RMS=2.42D-07 Max=2.16D-06 NDo=     1
 LinEq1:  Iter=  6 NonCon=     1 RMS=1.11D-08 Max=5.43D-08 NDo=     1
 LinEq1:  Iter=  7 NonCon=     1 RMS=6.96D-10 Max=6.59D-09 NDo=     1
 LinEq1:  Iter=  8 NonCon=     0 RMS=5.64D-11 Max=3.44D-10 NDo=     1
 Linear equations converged to 1.000D-10 1.000D-09 after     8 iterations.
 End of Minotr F.D. properties file   721 does not exist.
 End of Minotr F.D. properties file   722 does not exist.
 End of Minotr F.D. properties file   788 does not exist.
 Calling FoFJK, ICntrl=  10002127 FMM=F ISym2X=1 I1Cent= 0 IOpClX= 0 NMat=1 NMatS=1 NMatT=0.
 ***** Axes restored to original set *****
 -------------------------------------------------------------------
 Center     Atomic                   Forces (Hartrees/Bohr)
 Number     Number              X              Y              Z
 -------------------------------------------------------------------
      1        6           0.000041422    0.000000771    0.000000000
      2        6          -0.000041422   -0.000000771    0.000000000
      3        1          -0.000026743   -0.000000498    0.000000000
      4        1           0.000026743    0.000000498    0.000000000
 -------------------------------------------------------------------
 Cartesian Forces:  Max     0.000041422 RMS     0.000020132

 GradGradGradGradGradGradGradGradGradGradGradGradGradGradGradGradGradGrad
 Berny optimization.
 Using GEDIIS/GDIIS optimizer.
 Internal  Forces:  Max     0.000026748 RMS     0.000015336
 Search for a local minimum.
 Step number   3 out of a maximum of   20
 All quantities printed in internal units (Hartrees-Bohrs-Radians)
 Mixed Optimization -- En-DIIS/RFO-DIIS
 Swapping is turned off.
 Update second derivatives using D2CorX and points    1    2    3
 DE= -8.62D-07 DEPred=-8.37D-07 R= 1.03D+00
 Trust test= 1.03D+00 RLast= 1.53D-03 DXMaxT set to 3.00D-01
 The second derivative matrix:
                          R1        R2        R3        A1        A2
           R1           1.00523
           R2           0.01365   0.39491
           R3           0.01365   0.00753   0.39491
           A1           0.00000   0.00000   0.00000   0.00653
           A2           0.00000   0.00000   0.00000   0.00000   0.00653
           A3           0.00000   0.00000   0.00000   0.00000   0.00000
           A4           0.00000   0.00000   0.00000   0.00000   0.00000
                          A3        A4
           A3           0.00653
           A4           0.00000   0.00653
 ITU=  0  1  0
     Eigenvalues ---    0.00653   0.00653   0.00653   0.00653   0.38738
     Eigenvalues ---    0.40182   1.00585
 En-DIIS/RFO-DIIS IScMMF=        0 using points:     3    2
 RFO step:  Lambda= 0.00000000D+00.
 DidBck=F Rises=F RFO-DIIS coefs:    0.98762    0.01238
 Iteration  1 RMS(Cart)=  0.00003174 RMS(Int)=  0.00000001
 Iteration  2 RMS(Cart)=  0.00000001 RMS(Int)=  0.00000000
 ClnCor:  largest displacement from symmetrization is 1.69D-08 for atom     1.
 Variable       Old X    -DE/DX   Delta X   Delta X   Delta X     New X
                                 (Linear)    (Quad)   (Total)
    R1        2.30273  -0.00001   0.00001  -0.00003  -0.00002   2.30272
    R2        2.00774   0.00003   0.00001   0.00006   0.00007   2.00780
    R3        2.00774   0.00003   0.00001   0.00006   0.00007   2.00780
    A1        3.14159   0.00000   0.00000   0.00000   0.00000   3.14159
    A2        3.14159   0.00000   0.00000   0.00000   0.00000   3.14159
    A3        3.14159   0.00000   0.00000   0.00000   0.00000   3.14159
    A4        3.14159   0.00000   0.00000   0.00000   0.00000   3.14159
         Item               Value     Threshold  Converged?
 Maximum Force            0.000027     0.000450     YES
 RMS     Force            0.000015     0.000300     YES
 Maximum Displacement     0.000059     0.001800     YES
 RMS     Displacement     0.000032     0.001200     YES
 Predicted change in Energy=-1.913266D-09
 Optimization completed.
    -- Stationary point found.
                           ----------------------------
                           !   Optimized Parameters   !
                           ! (Angstroms and Degrees)  !
 --------------------------                            --------------------------
 ! Name  Definition              Value          Derivative Info.                !
 --------------------------------------------------------------------------------
 ! R1    R(1,2)                  1.2186         -DE/DX =    0.0                 !
 ! R2    R(1,3)                  1.0624         -DE/DX =    0.0                 !
 ! R3    R(2,4)                  1.0624         -DE/DX =    0.0                 !
 ! A1    L(2,1,3,-3,-1)        180.0            -DE/DX =    0.0                 !
 ! A2    L(1,2,4,-3,-1)        180.0            -DE/DX =    0.0                 !
 ! A3    L(2,1,3,-2,-2)        180.0            -DE/DX =    0.0                 !
 ! A4    L(1,2,4,-2,-2)        180.0            -DE/DX =    0.0                 !
 --------------------------------------------------------------------------------
 GradGradGradGradGradGradGradGradGradGradGradGradGradGradGradGradGradGrad

                          Input orientation:                          
 ---------------------------------------------------------------------
 Center     Atomic      Atomic             Coordinates (Angstroms)
 Number     Number       Type             X           Y           Z
 ---------------------------------------------------------------------
      1          6           0       -8.451717    3.248988    0.000000
      2          6           0       -7.233373    3.271664    0.000000
      3          1           0       -9.513981    3.229217    0.000000
      4          1           0       -6.171109    3.291434    0.000000
 ---------------------------------------------------------------------
                    Distance matrix (angstroms):
                    1          2          3          4
     1  C    0.000000
     2  C    1.218555   0.000000
     3  H    1.062449   2.281003   0.000000
     4  H    2.281003   1.062449   3.343452   0.000000
 Stoichiometry    C2H2
 Framework group  D*H[C*(HC.CH)]
 Deg. of freedom     2
 Full point group                 D*H     NOp   8
 Largest Abelian subgroup         D2H     NOp   8
 Largest concise Abelian subgroup C2      NOp   2
                         Standard orientation:                         
 ---------------------------------------------------------------------
 Center     Atomic      Atomic             Coordinates (Angstroms)
 Number     Number       Type             X           Y           Z
 ---------------------------------------------------------------------
      1          6           0        0.000000    0.000000   -0.609277
      2          6           0        0.000000    0.000000    0.609277
      3          1           0        0.000000    0.000000   -1.671726
      4          1           0        0.000000    0.000000    1.671726
 ---------------------------------------------------------------------
 Rotational constants (GHZ):      0.0000000     34.7522900     34.7522900

 **********************************************************************

            Population analysis using the SCF density.

 **********************************************************************

 Orbital symmetries:
       Occupied  (SGG) (SGU) (SGG) (SGU) (SGG) (PIU) (PIU)
       Virtual   (PIG) (PIG) (SGU) (SGG) (SGU) (SGG) (PIU) (PIU)
                 (PIG) (PIG) (SGU) (SGG) (SGG) (SGU) (PIU) (PIU)
                 (SGU) (DLTG) (DLTG) (PIG) (PIG) (DLTU) (DLTU)
                 (SGG) (PIU) (PIU) (SGU) (PIG) (PIG) (SGG) (SGU)
                 (SGG) (SGU)
 The electronic state is 1-SGG.
 Alpha  occ. eigenvalues --  -11.24403 -11.24069  -1.01495  -0.76164  -0.66960
 Alpha  occ. eigenvalues --   -0.39682  -0.39682
 Alpha virt. eigenvalues --    0.21021   0.21021   0.24756   0.29588   0.60834
 Alpha virt. eigenvalues --    0.64656   0.74991   0.74991   0.90337   0.90337
 Alpha virt. eigenvalues --    0.93882   1.03036   1.27392   1.51068   1.64425
 Alpha virt. eigenvalues --    1.64425   1.70192   1.82135   1.82135   2.22314
 Alpha virt. eigenvalues --    2.22314   2.24241   2.24241   2.56412   2.69599
 Alpha virt. eigenvalues --    2.69599   3.08856   3.36671   3.36671   3.73122
 Alpha virt. eigenvalues --    4.20673   4.97603   5.78677
          Condensed to atoms (all electrons):
               1          2          3          4
     1  C    4.785527   1.094734   0.362493  -0.005042
     2  C    1.094734   4.785527  -0.005042   0.362493
     3  H    0.362493  -0.005042   0.403188   0.001649
     4  H   -0.005042   0.362493   0.001649   0.403188
 Mulliken charges:
               1
     1  C   -0.237712
     2  C   -0.237712
     3  H    0.237712
     4  H    0.237712
 Sum of Mulliken charges =   0.00000
 Mulliken charges with hydrogens summed into heavy atoms:
               1
     1  C    0.000000
     2  C    0.000000
 Electronic spatial extent (au):  <R**2>=             60.6912
 Charge=              0.0000 electrons
 Dipole moment (field-independent basis, Debye):
    X=              0.0000    Y=              0.0000    Z=              0.0000  Tot=              0.0000
 Quadrupole moment (field-independent basis, Debye-Ang):
   XX=            -13.4576   YY=            -13.4576   ZZ=             -6.4734
   XY=              0.0000   XZ=              0.0000   YZ=              0.0000
 Traceless Quadrupole moment (field-independent basis, Debye-Ang):
   XX=             -2.3281   YY=             -2.3281   ZZ=              4.6561
   XY=              0.0000   XZ=              0.0000   YZ=              0.0000
 Octapole moment (field-independent basis, Debye-Ang**2):
  XXX=              0.0000  YYY=              0.0000  ZZZ=              0.0000  XYY=              0.0000
  XXY=              0.0000  XXZ=              0.0000  XZZ=              0.0000  YZZ=              0.0000
  YYZ=              0.0000  XYZ=              0.0000
 Hexadecapole moment (field-independent basis, Debye-Ang**3):
 XXXX=            -14.2878 YYYY=            -14.2878 ZZZZ=            -35.9030 XXXY=              0.0000
 XXXZ=              0.0000 YYYX=              0.0000 YYYZ=              0.0000 ZZZX=              0.0000
 ZZZY=              0.0000 XXYY=             -4.7626 XXZZ=            -11.9489 YYZZ=            -11.9489
 XXYZ=              0.0000 YYXZ=              0.0000 ZZXY=              0.0000
 N-N= 2.455265774974D+01 E-N=-2.278496302467D+02  KE= 7.655449842186D+01
 Symmetry AG   KE= 3.790178856341D+01
 Symmetry B1G  KE= 3.203968875199D-33
 Symmetry B2G  KE= 1.943135123702D-32
 Symmetry B3G  KE= 4.752343584137D-32
 Symmetry AU   KE= 2.038170970811D-33
 Symmetry B1U  KE= 3.447248897174D+01
 Symmetry B2U  KE= 2.090110443358D+00
 Symmetry B3U  KE= 2.090110443358D+00
 1\1\GINC-N0288\FOpt\RMP2-FC\6-31G(d,p)\C2H2\GDAVIDS3\21-Feb-2017\0\\#n
  MP2/6-31G(d,p) Opt\\Ethyne MP2 6-31dp\\0,1\C,-8.4517167535,3.24898781
 52,0.\C,-7.2333732465,3.2716636134,0.\H,-9.5139814456,3.2292169544,0.\
 H,-6.1711085544,3.2914344742,0.\\Version=ES64L-G09RevE.01\State=1-SGG\
 HF=-76.819454\MP2=-77.081668\RMSD=2.604e-09\RMSF=2.013e-05\Dipole=0.,0
 .,0.\PG=D*H [C*(H1C1.C1H1)]\\@


                                                                                    A
                                                                                  AA
                                                                                 AAA
                                                                                AAAA
                                                                               AAAAA
                                                                              AAAAAA   KKKKKKKK
                                                                             AAAAAAA   KKKKKKKK
                                                                            AAAAAAAA   KKKKKKKK
                                       ZZZZZZZZZZZZZZZZZZZZ                AAAA  AAA   KKKKKKKK
                                       ZZZZZZZZZZZZZZZZZZZ                AAAA   AAA   KKKKKKKK          K
                                       ZZZZZZZZZZZZZZZZZZ                AAAA    AAA   KKKKKKKK         KKK
                                       ZZZZZZZZZZZZZZZZZ                AAAA     AAA   KKKKKKKK        KKKKK
                                       ZZZZZZZZZZZZZZZZ                AAAA      AAA   KKKKKKKK       KKKKKKK
                                                ZZZZZZ                AAAA       AAA   KKKKKKKK      KKKKKKK
                                               ZZZZZZ                AAAA        AAA   KKKKKKKK     KKKKKKK
                                              ZZZZZZ                AAAA         AAA   KKKKKKKK    KKKKKKK
                                             ZZZZZZ                AAAA          AAA   KKKKKKKK   KKKKKKK
                                            ZZZZZZ                AAAAAAAAAAAAAAAAAA   KKKKKKKK  KKKKKKK
                                           ZZZZZZ                AAAAAAAAAAAAAAAAAAA   KKKKKKKK KKKKKKK
                                          ZZZZZZ                AAAAAAAAAAAAAAAAAAAA   KKKKKKKKKKKKKKK
                                         ZZZZZZ                AAAAAAAAAAAAAAAAAAAAA   KKKKKKKKKKKKKK
                                        ZZZZZZ                AAAAAA        AAAAAAAA   KKKKKKKKKKKKK
                                       ZZZZZZ                AAAAAA         AAAAAAAA   KKKKKKKKKKKK
                                      ZZZZZZ                AAAAAA          AAAAAAAA   KKKKKKKKKKK
                                     ZZZZZZ                AAAAAA           AAAAAAAA   KKKKKKKKKKKK
                                    ZZZZZZ                AAAAAA            AAAAAAAA   KKKKKKKKKKKKK
                                   ZZZZZZ                AAAAAA             AAAAAAAA   KKKKKKKKKKKKKK
                                  ZZZZZZ                AAAAAA              AAAAAAAA   KKKKKKKKKKKKKKK
                                 ZZZZZZ                AAAAAA               AAAAAAAA   KKKKK KKKKKKKKKK
                                ZZZZZZ                AAAAAA                AAAAAAAA   KKKKK  KKKKKKKKKK
                               ZZZZZZ                AAAAAA                            KKKKK   KKKKKKKKKK
                              ZZZZZZ                AAAAAA                             KKKKK    KKKKKKKKKK
                             ZZZZZZ                                                    KKKKK     KKKKKKKKKK
                            ZZZZZZ                                                     KKKKK      KKKKKKKKKK
                           ZZZZZZ                                                      KKKKK       KKKKKKKKKK
                          ZZZZZZ                                                       KKKKK        KKKKKKKKKK
                         ZZZZZZZZZZZZZZZZZZZZZZZZZZZZZZZZZZZZZZZZ                      KKKKK         KKKKKKKKKK
                        ZZZZZZZZZZZZZZZZZZZZZZZZZZZZZZZZZZZZZZZZZ                      KKKKK          KKKKKKKKKK
                       ZZZZZZZZZZZZZZZZZZZZZZZZZZZZZZZZZZZZZZZZZZ                      KKKKK           KKKKKKKKKK
                       ZZZZZZZZZZZZZZZZZZZZZZZZZZZZZZZZZZZZZZZZZZ                      KKKKK            KKKKKKKKKK
                       ZZZZZZZZZZZZZZZZZZZZZZZZZZZZZZZZZZZZZZZZZZ                      KKKKK             KKKKKKKKKK
                       ZZZZZZZZZZZZZZZZZZZZZZZZZZZZZZZZZZZZZZZZZZ                      KKKKK              KKKKKKKKKK
                       ZZZZZZZZZZZZZZZZZZZZZZZZZZZZZZZZZZZZZZZZZZ                      KKKKK               KKKKKKKKKK
                       ZZZZZZZZZZZZZZZZZZZZZZZZZZZZZZZZZZZZZZZZZZ                      KKKKK                KKKKKKKKKK
                       ZZZZZZZZZZZZZZZZZZZZZZZZZZZZZZZZZZZZZZZZZZ                      KKKKK
                                                                                       KKKKK
                                                                                          (J.P.)
 Job cpu time:       0 days  0 hours  0 minutes 36.2 seconds.
 File lengths (MBytes):  RWF=      5 Int=      0 D2E=      0 Chk=      1 Scr=      1
 Normal termination of Gaussian 09 at Tue Feb 21 19:29:53 2017.
