 Entering Gaussian System, Link 0=g09
 Input=HMI_TF2_1.com
 Output=HMI_TF2_1.log
 Initial command:
 /gscratch/pfaendtner/codes/G09/g09/l1.exe /gscratch/pfaendtner/wesley/gaussian/Gau-17739.inp -scrdir=/gscratch/pfaendtner/wesley/gaussian/
 Entering Link 1 = /gscratch/pfaendtner/codes/G09/g09/l1.exe PID=     17753.
  
 Copyright (c) 1988,1990,1992,1993,1995,1998,2003,2009, Gaussian, Inc.
                  All Rights Reserved.
  
 This is part of the Gaussian(R) 09 program.  It is based on
 the Gaussian(R) 03 system (copyright 2003, Gaussian, Inc.),
 the Gaussian(R) 98 system (copyright 1998, Gaussian, Inc.),
 the Gaussian(R) 94 system (copyright 1995, Gaussian, Inc.),
 the Gaussian 92(TM) system (copyright 1992, Gaussian, Inc.),
 the Gaussian 90(TM) system (copyright 1990, Gaussian, Inc.),
 the Gaussian 88(TM) system (copyright 1988, Gaussian, Inc.),
 the Gaussian 86(TM) system (copyright 1986, Carnegie Mellon
 University), and the Gaussian 82(TM) system (copyright 1983,
 Carnegie Mellon University). Gaussian is a federally registered
 trademark of Gaussian, Inc.
  
 This software contains proprietary and confidential information,
 including trade secrets, belonging to Gaussian, Inc.
  
 This software is provided under written license and may be
 used, copied, transmitted, or stored only in accord with that
 written license.
  
 The following legend is applicable only to US Government
 contracts under FAR:
  
                    RESTRICTED RIGHTS LEGEND
  
 Use, reproduction and disclosure by the US Government is
 subject to restrictions as set forth in subparagraphs (a)
 and (c) of the Commercial Computer Software - Restricted
 Rights clause in FAR 52.227-19.
  
 Gaussian, Inc.
 340 Quinnipiac St., Bldg. 40, Wallingford CT 06492
  
  
 ---------------------------------------------------------------
 Warning -- This program may not be used in any manner that
 competes with the business of Gaussian, Inc. or will provide
 assistance to any competitor of Gaussian, Inc.  The licensee
 of this program is prohibited from giving any competitor of
 Gaussian, Inc. access to this program.  By using this program,
 the user acknowledges that Gaussian, Inc. is engaged in the
 business of creating and licensing software in the field of
 computational chemistry and represents and warrants to the
 licensee that it is not a competitor of Gaussian, Inc. and that
 it will not use this program in any manner prohibited above.
 ---------------------------------------------------------------
  

 Cite this work as:
 Gaussian 09, Revision A.02,
 M. J. Frisch, G. W. Trucks, H. B. Schlegel, G. E. Scuseria, 
 M. A. Robb, J. R. Cheeseman, G. Scalmani, V. Barone, B. Mennucci, 
 G. A. Petersson, H. Nakatsuji, M. Caricato, X. Li, H. P. Hratchian, 
 A. F. Izmaylov, J. Bloino, G. Zheng, J. L. Sonnenberg, M. Hada, 
 M. Ehara, K. Toyota, R. Fukuda, J. Hasegawa, M. Ishida, T. Nakajima, 
 Y. Honda, O. Kitao, H. Nakai, T. Vreven, J. A. Montgomery, Jr., 
 J. E. Peralta, F. Ogliaro, M. Bearpark, J. J. Heyd, E. Brothers, 
 K. N. Kudin, V. N. Staroverov, R. Kobayashi, J. Normand, 
 K. Raghavachari, A. Rendell, J. C. Burant, S. S. Iyengar, J. Tomasi, 
 M. Cossi, N. Rega, J. M. Millam, M. Klene, J. E. Knox, J. B. Cross, 
 V. Bakken, C. Adamo, J. Jaramillo, R. Gomperts, R. E. Stratmann, 
 O. Yazyev, A. J. Austin, R. Cammi, C. Pomelli, J. W. Ochterski, 
 R. L. Martin, K. Morokuma, V. G. Zakrzewski, G. A. Voth, 
 P. Salvador, J. J. Dannenberg, S. Dapprich, A. D. Daniels, 
 O. Farkas, J. B. Foresman, J. V. Ortiz, J. Cioslowski, 
 and D. J. Fox, Gaussian, Inc., Wallingford CT, 2009.
 
 ******************************************
 Gaussian 09:  EM64L-G09RevA.02 11-Jun-2009
                13-Mar-2017 
 ******************************************
 %chk=HMI_TF2_1.chk
 %nprocshared=16
 Will use up to   16 processors via shared memory.
 ---------------------------------------------------------------
 # opt M062X/6-311+G* geom=connectivity scrf(cpcm,solvent=water)
 ---------------------------------------------------------------
 1/14=-1,18=20,19=15,26=3,38=1,57=2/1,3;
 2/9=110,12=2,17=6,18=5,40=1/2;
 3/5=4,6=6,7=11,11=2,16=1,25=1,30=1,70=2101,71=1,72=1,74=-55/1,2,3;
 4//1;
 5/5=2,38=5,53=1/2;
 6/7=2,8=2,9=2,10=2,28=1/1;
 7//1,2,3,16;
 1/14=-1,18=20,19=15/3(2);
 2/9=110/2;
 99//99;
 2/9=110/2;
 3/5=4,6=6,7=11,11=2,16=1,25=1,30=1,70=2105,71=1,72=1,74=-55/1,2,3;
 4/5=5,16=3/1;
 5/5=2,38=5,53=1/2;
 7//1,2,3,16;
 1/14=-1,18=20,19=15/3(-5);
 2/9=110/2;
 6/7=2,8=2,9=2,10=2,19=2,28=1/1;
 99/9=1/99;
 -------------------
 Title Card Required
 -------------------
 Symbolic Z-matrix:
 Charge =  0 Multiplicity = 1
 C(PDBName=C1,ResName=HMI,ResNum=1)  0.035    -0.965    -0.211 
 C(PDBName=C2,ResName=HMI,ResNum=1)  1.374    -0.982    -0.135 
 C(PDBName=C3,ResName=HMI,ResNum=1)  0.709     1.075     0.137 
 N(PDBName=N1,ResName=HMI,ResNum=1) -0.367     0.341    -0.034 
 H(PDBName=H1,ResName=HMI,ResNum=1) -0.664    -1.756    -0.367 
 H(PDBName=H2,ResName=HMI,ResNum=1)  2.07     -1.789    -0.213 
 H(PDBName=H3,ResName=HMI,ResNum=1)  0.712     2.132     0.3 
 N(PDBName=N2,ResName=HMI,ResNum=1)  1.782     0.316     0.084 
 C(PDBName=C4,ResName=HMI,ResNum=1) -1.76      0.832    -0.07 
 H(PDBName=H4,ResName=HMI,ResNum=1) -1.76      1.806     0.398 
 H(PDBName=H5,ResName=HMI,ResNum=1) -2.342     0.168     0.555 
 C(PDBName=C5,ResName=HMI,ResNum=1) -2.314     0.899    -1.491 
 H(PDBName=H6,ResName=HMI,ResNum=1) -2.264    -0.087    -1.945 
 H(PDBName=H7,ResName=HMI,ResNum=1) -1.684     1.553    -2.088 
 C(PDBName=C6,ResName=HMI,ResNum=1) -3.759     1.404    -1.506 
 H(PDBName=H8,ResName=HMI,ResNum=1) -4.378     0.749    -0.897 
 H(PDBName=H9,ResName=HMI,ResNum=1) -3.803     2.388    -1.044 
 C(PDBName=C7,ResName=HMI,ResNum=1) -4.339     1.481    -2.92 
 H(PDBName=H10,ResName=HMI,ResNum=1) -3.718     2.136    -3.529 
 H(PDBName=H11,ResName=HMI,ResNum=1) -4.293     0.497    -3.382 
 C(PDBName=C8,ResName=HMI,ResNum=1) -5.783     1.986    -2.945 
 H(PDBName=H12,ResName=HMI,ResNum=1) -6.403     1.332    -2.336 
 H(PDBName=H13,ResName=HMI,ResNum=1) -5.829     2.97     -2.483 
 C(PDBName=C9,ResName=HMI,ResNum=1) -6.359     2.061    -4.359 
 H(PDBName=H14,ResName=HMI,ResNum=1) -7.381     2.422    -4.343 
 H(PDBName=H15,ResName=HMI,ResNum=1) -5.78      2.735    -4.983 
 H(PDBName=H16,ResName=HMI,ResNum=1) -6.359     1.086    -4.835 
 C(PDBName=C10,ResName=HMI,ResNum=1)  3.17      0.761     0.238 
 H(PDBName=H17,ResName=HMI,ResNum=1)  3.612     0.267     1.091 
 H(PDBName=H18,ResName=HMI,ResNum=1)  3.723     0.523    -0.658 
 H(PDBName=H19,ResName=HMI,ResNum=1)  3.18      1.828     0.395 
 N                     0.11467   7.06686  -1.17834 
 S                    -0.84533   6.16486  -2.05034 
 S                    -0.31733   7.92186   0.06366 
 O                    -1.52133   5.12486  -1.33334 
 O                    -1.58833   6.88486  -3.04234 
 O                     0.52467   9.07186   0.18966 
 O                    -1.73233   8.07786   0.21966 
 C                     0.44967   5.30486  -2.99034 
 C                     0.18167   6.89086   1.47766 
 F                    -0.13033   4.46486  -3.82634 
 F                     1.18067   6.13586  -3.69534 
 F                     1.24267   4.61286  -2.20534 
 F                     1.47267   6.64286   1.45166 
 F                    -0.45733   5.74686   1.49266 
 F                    -0.08733   7.52686   2.60066 
 

 GradGradGradGradGradGradGradGradGradGradGradGradGradGradGradGradGradGrad
 Berny optimization.
 Initialization pass.
                           ----------------------------
                           !    Initial Parameters    !
                           ! (Angstroms and Degrees)  !
 --------------------------                            --------------------------
 ! Name  Definition              Value          Derivative Info.                !
 --------------------------------------------------------------------------------
 ! R1    R(1,2)                  1.3413         estimate D2E/DX2                !
 ! R2    R(1,4)                  1.3779         estimate D2E/DX2                !
 ! R3    R(1,5)                  1.0671         estimate D2E/DX2                !
 ! R4    R(2,6)                  1.0685         estimate D2E/DX2                !
 ! R5    R(2,8)                  1.3781         estimate D2E/DX2                !
 ! R6    R(3,4)                  1.3137         estimate D2E/DX2                !
 ! R7    R(3,7)                  1.0695         estimate D2E/DX2                !
 ! R8    R(3,8)                  1.3154         estimate D2E/DX2                !
 ! R9    R(3,43)                 4.2764         estimate D2E/DX2                !
 ! R10   R(4,9)                  1.4774         estimate D2E/DX2                !
 ! R11   R(7,35)                 4.0759         estimate D2E/DX2                !
 ! R12   R(7,39)                 4.5785         estimate D2E/DX2                !
 ! R13   R(7,43)                 3.5655         estimate D2E/DX2                !
 ! R14   R(7,45)                 3.9821         estimate D2E/DX2                !
 ! R15   R(8,28)                 1.4657         estimate D2E/DX2                !
 ! R16   R(9,10)                 1.0806         estimate D2E/DX2                !
 ! R17   R(9,11)                 1.0818         estimate D2E/DX2                !
 ! R18   R(9,12)                 1.5266         estimate D2E/DX2                !
 ! R19   R(9,35)                 4.4813         estimate D2E/DX2                !
 ! R20   R(10,35)                3.7509         estimate D2E/DX2                !
 ! R21   R(10,45)                4.2925         estimate D2E/DX2                !
 ! R22   R(12,13)                1.0867         estimate D2E/DX2                !
 ! R23   R(12,14)                1.0867         estimate D2E/DX2                !
 ! R24   R(12,15)                1.5308         estimate D2E/DX2                !
 ! R25   R(12,35)                4.3024         estimate D2E/DX2                !
 ! R26   R(14,35)                3.6543         estimate D2E/DX2                !
 ! R27   R(14,39)                4.4094         estimate D2E/DX2                !
 ! R28   R(14,41)                3.7302         estimate D2E/DX2                !
 ! R29   R(14,43)                4.2358         estimate D2E/DX2                !
 ! R30   R(15,16)                1.0877         estimate D2E/DX2                !
 ! R31   R(15,17)                1.088          estimate D2E/DX2                !
 ! R32   R(15,18)                1.5303         estimate D2E/DX2                !
 ! R33   R(15,35)                4.3453         estimate D2E/DX2                !
 ! R34   R(17,35)                3.5749         estimate D2E/DX2                !
 ! R35   R(18,19)                1.0888         estimate D2E/DX2                !
 ! R36   R(18,20)                1.088          estimate D2E/DX2                !
 ! R37   R(18,21)                1.53           estimate D2E/DX2                !
 ! R38   R(19,35)                4.3104         estimate D2E/DX2                !
 ! R39   R(19,41)                4.2876         estimate D2E/DX2                !
 ! R40   R(21,22)                1.0877         estimate D2E/DX2                !
 ! R41   R(21,23)                1.088          estimate D2E/DX2                !
 ! R42   R(21,24)                1.5287         estimate D2E/DX2                !
 ! R43   R(24,25)                1.084          estimate D2E/DX2                !
 ! R44   R(24,26)                1.0858         estimate D2E/DX2                !
 ! R45   R(24,27)                1.085          estimate D2E/DX2                !
 ! R46   R(28,29)                1.0803         estimate D2E/DX2                !
 ! R47   R(28,30)                1.0795         estimate D2E/DX2                !
 ! R48   R(28,31)                1.0785         estimate D2E/DX2                !
 ! R49   R(31,43)                4.2744         estimate D2E/DX2                !
 ! R50   R(32,33)                1.5797         estimate D2E/DX2                !
 ! R51   R(32,34)                1.5685         estimate D2E/DX2                !
 ! R52   R(33,35)                1.4327         estimate D2E/DX2                !
 ! R53   R(33,36)                1.4334         estimate D2E/DX2                !
 ! R54   R(33,39)                1.8167         estimate D2E/DX2                !
 ! R55   R(34,37)                1.4309         estimate D2E/DX2                !
 ! R56   R(34,38)                1.4321         estimate D2E/DX2                !
 ! R57   R(34,40)                1.8197         estimate D2E/DX2                !
 ! R58   R(39,41)                1.3194         estimate D2E/DX2                !
 ! R59   R(39,42)                1.3122         estimate D2E/DX2                !
 ! R60   R(39,43)                1.313          estimate D2E/DX2                !
 ! R61   R(40,44)                1.3149         estimate D2E/DX2                !
 ! R62   R(40,45)                1.3105         estimate D2E/DX2                !
 ! R63   R(40,46)                1.3183         estimate D2E/DX2                !
 ! A1    A(2,1,4)              107.2171         estimate D2E/DX2                !
 ! A2    A(2,1,5)              130.7571         estimate D2E/DX2                !
 ! A3    A(4,1,5)              122.0242         estimate D2E/DX2                !
 ! A4    A(1,2,6)              130.9729         estimate D2E/DX2                !
 ! A5    A(1,2,8)              107.015          estimate D2E/DX2                !
 ! A6    A(6,2,8)              122.0119         estimate D2E/DX2                !
 ! A7    A(4,3,7)              125.0534         estimate D2E/DX2                !
 ! A8    A(4,3,8)              109.9072         estimate D2E/DX2                !
 ! A9    A(7,3,8)              125.0387         estimate D2E/DX2                !
 ! A10   A(1,4,3)              107.899          estimate D2E/DX2                !
 ! A11   A(1,4,9)              125.9402         estimate D2E/DX2                !
 ! A12   A(3,4,9)              126.1389         estimate D2E/DX2                !
 ! A13   A(2,8,3)              107.9612         estimate D2E/DX2                !
 ! A14   A(2,8,28)             125.6627         estimate D2E/DX2                !
 ! A15   A(3,8,28)             126.375          estimate D2E/DX2                !
 ! A16   A(4,9,10)             106.7978         estimate D2E/DX2                !
 ! A17   A(4,9,11)             106.8095         estimate D2E/DX2                !
 ! A18   A(4,9,12)             112.2973         estimate D2E/DX2                !
 ! A19   A(10,9,11)            107.6398         estimate D2E/DX2                !
 ! A20   A(10,9,12)            111.3192         estimate D2E/DX2                !
 ! A21   A(11,9,12)            111.6832         estimate D2E/DX2                !
 ! A22   A(9,12,13)            109.4124         estimate D2E/DX2                !
 ! A23   A(9,12,14)            109.1093         estimate D2E/DX2                !
 ! A24   A(9,12,15)            111.4785         estimate D2E/DX2                !
 ! A25   A(13,12,14)           106.8498         estimate D2E/DX2                !
 ! A26   A(13,12,15)           109.7966         estimate D2E/DX2                !
 ! A27   A(14,12,15)           110.0788         estimate D2E/DX2                !
 ! A28   A(12,15,16)           109.4545         estimate D2E/DX2                !
 ! A29   A(12,15,17)           109.4141         estimate D2E/DX2                !
 ! A30   A(12,15,18)           112.5466         estimate D2E/DX2                !
 ! A31   A(16,15,17)           106.4917         estimate D2E/DX2                !
 ! A32   A(16,15,18)           109.3881         estimate D2E/DX2                !
 ! A33   A(17,15,18)           109.3628         estimate D2E/DX2                !
 ! A34   A(15,18,19)           109.3247         estimate D2E/DX2                !
 ! A35   A(15,18,20)           109.3189         estimate D2E/DX2                !
 ! A36   A(15,18,21)           112.919          estimate D2E/DX2                !
 ! A37   A(19,18,20)           106.4056         estimate D2E/DX2                !
 ! A38   A(19,18,21)           109.3048         estimate D2E/DX2                !
 ! A39   A(20,18,21)           109.3585         estimate D2E/DX2                !
 ! A40   A(18,21,22)           109.2921         estimate D2E/DX2                !
 ! A41   A(18,21,23)           109.3585         estimate D2E/DX2                !
 ! A42   A(18,21,24)           112.7642         estimate D2E/DX2                !
 ! A43   A(22,21,23)           106.3764         estimate D2E/DX2                !
 ! A44   A(22,21,24)           109.4287         estimate D2E/DX2                !
 ! A45   A(23,21,24)           109.4187         estimate D2E/DX2                !
 ! A46   A(21,24,25)           110.9734         estimate D2E/DX2                !
 ! A47   A(21,24,26)           111.1692         estimate D2E/DX2                !
 ! A48   A(21,24,27)           111.2058         estimate D2E/DX2                !
 ! A49   A(25,24,26)           107.7291         estimate D2E/DX2                !
 ! A50   A(25,24,27)           107.8027         estimate D2E/DX2                !
 ! A51   A(26,24,27)           107.8001         estimate D2E/DX2                !
 ! A52   A(8,28,29)            109.3652         estimate D2E/DX2                !
 ! A53   A(8,28,30)            109.3281         estimate D2E/DX2                !
 ! A54   A(8,28,31)            108.9314         estimate D2E/DX2                !
 ! A55   A(29,28,30)           110.1803         estimate D2E/DX2                !
 ! A56   A(29,28,31)           109.4912         estimate D2E/DX2                !
 ! A57   A(30,28,31)           109.5236         estimate D2E/DX2                !
 ! A58   A(33,32,34)           125.5178         estimate D2E/DX2                !
 ! A59   A(32,33,35)           115.148          estimate D2E/DX2                !
 ! A60   A(32,33,36)           114.2183         estimate D2E/DX2                !
 ! A61   A(32,33,39)            97.0494         estimate D2E/DX2                !
 ! A62   A(35,33,36)           117.8009         estimate D2E/DX2                !
 ! A63   A(35,33,39)           104.5756         estimate D2E/DX2                !
 ! A64   A(36,33,39)           104.4304         estimate D2E/DX2                !
 ! A65   A(32,34,37)           110.2284         estimate D2E/DX2                !
 ! A66   A(32,34,38)           114.6938         estimate D2E/DX2                !
 ! A67   A(32,34,40)           103.3516         estimate D2E/DX2                !
 ! A68   A(37,34,38)           118.9662         estimate D2E/DX2                !
 ! A69   A(37,34,40)           103.0364         estimate D2E/DX2                !
 ! A70   A(38,34,40)           104.3603         estimate D2E/DX2                !
 ! A71   A(33,39,41)           108.4138         estimate D2E/DX2                !
 ! A72   A(33,39,42)           112.0434         estimate D2E/DX2                !
 ! A73   A(33,39,43)           111.7574         estimate D2E/DX2                !
 ! A74   A(41,39,42)           107.9168         estimate D2E/DX2                !
 ! A75   A(41,39,43)           107.9854         estimate D2E/DX2                !
 ! A76   A(42,39,43)           108.5735         estimate D2E/DX2                !
 ! A77   A(34,40,44)           111.1457         estimate D2E/DX2                !
 ! A78   A(34,40,45)           111.7025         estimate D2E/DX2                !
 ! A79   A(34,40,46)           109.4286         estimate D2E/DX2                !
 ! A80   A(44,40,45)           108.321          estimate D2E/DX2                !
 ! A81   A(44,40,46)           107.9496         estimate D2E/DX2                !
 ! A82   A(45,40,46)           108.1741         estimate D2E/DX2                !
 ! D1    D(4,1,2,6)            179.6431         estimate D2E/DX2                !
 ! D2    D(4,1,2,8)             -0.1856         estimate D2E/DX2                !
 ! D3    D(5,1,2,6)              0.1001         estimate D2E/DX2                !
 ! D4    D(5,1,2,8)           -179.7285         estimate D2E/DX2                !
 ! D5    D(2,1,4,3)              0.2222         estimate D2E/DX2                !
 ! D6    D(2,1,4,9)            178.5991         estimate D2E/DX2                !
 ! D7    D(5,1,4,3)            179.8138         estimate D2E/DX2                !
 ! D8    D(5,1,4,9)             -1.8092         estimate D2E/DX2                !
 ! D9    D(1,2,8,3)              0.0853         estimate D2E/DX2                !
 ! D10   D(1,2,8,28)           179.7294         estimate D2E/DX2                !
 ! D11   D(6,2,8,3)           -179.7621         estimate D2E/DX2                !
 ! D12   D(6,2,8,28)            -0.118          estimate D2E/DX2                !
 ! D13   D(7,3,4,1)           -179.8896         estimate D2E/DX2                !
 ! D14   D(7,3,4,9)              1.7375         estimate D2E/DX2                !
 ! D15   D(8,3,4,1)             -0.1717         estimate D2E/DX2                !
 ! D16   D(8,3,4,9)           -178.5446         estimate D2E/DX2                !
 ! D17   D(4,3,8,2)              0.0557         estimate D2E/DX2                !
 ! D18   D(4,3,8,28)          -179.5853         estimate D2E/DX2                !
 ! D19   D(7,3,8,2)            179.7737         estimate D2E/DX2                !
 ! D20   D(7,3,8,28)             0.1327         estimate D2E/DX2                !
 ! D21   D(1,4,9,10)           162.7791         estimate D2E/DX2                !
 ! D22   D(1,4,9,11)            47.8268         estimate D2E/DX2                !
 ! D23   D(1,4,9,12)           -74.9278         estimate D2E/DX2                !
 ! D24   D(3,4,9,10)           -19.1335         estimate D2E/DX2                !
 ! D25   D(3,4,9,11)          -134.0858         estimate D2E/DX2                !
 ! D26   D(3,4,9,12)           103.1596         estimate D2E/DX2                !
 ! D27   D(2,8,28,29)          -60.5025         estimate D2E/DX2                !
 ! D28   D(2,8,28,30)           60.2134         estimate D2E/DX2                !
 ! D29   D(2,8,28,31)          179.8641         estimate D2E/DX2                !
 ! D30   D(3,8,28,29)          119.0771         estimate D2E/DX2                !
 ! D31   D(3,8,28,30)         -120.207          estimate D2E/DX2                !
 ! D32   D(3,8,28,31)           -0.5563         estimate D2E/DX2                !
 ! D33   D(4,9,12,13)           58.1212         estimate D2E/DX2                !
 ! D34   D(4,9,12,14)          -58.4527         estimate D2E/DX2                !
 ! D35   D(4,9,12,15)          179.7596         estimate D2E/DX2                !
 ! D36   D(10,9,12,13)         177.813          estimate D2E/DX2                !
 ! D37   D(10,9,12,14)          61.2391         estimate D2E/DX2                !
 ! D38   D(10,9,12,15)         -60.5487         estimate D2E/DX2                !
 ! D39   D(11,9,12,13)         -61.8399         estimate D2E/DX2                !
 ! D40   D(11,9,12,14)        -178.4138         estimate D2E/DX2                !
 ! D41   D(11,9,12,15)          59.7985         estimate D2E/DX2                !
 ! D42   D(9,12,15,16)         -58.1498         estimate D2E/DX2                !
 ! D43   D(9,12,15,17)          58.1906         estimate D2E/DX2                !
 ! D44   D(9,12,15,18)         179.99           estimate D2E/DX2                !
 ! D45   D(13,12,15,16)         63.2655         estimate D2E/DX2                !
 ! D46   D(13,12,15,17)        179.6059         estimate D2E/DX2                !
 ! D47   D(13,12,15,18)        -58.5947         estimate D2E/DX2                !
 ! D48   D(14,12,15,16)       -179.3745         estimate D2E/DX2                !
 ! D49   D(14,12,15,17)        -63.034          estimate D2E/DX2                !
 ! D50   D(14,12,15,18)         58.7653         estimate D2E/DX2                !
 ! D51   D(12,15,18,19)        -58.0397         estimate D2E/DX2                !
 ! D52   D(12,15,18,20)         58.0702         estimate D2E/DX2                !
 ! D53   D(12,15,18,21)       -179.9525         estimate D2E/DX2                !
 ! D54   D(16,15,18,19)       -179.9375         estimate D2E/DX2                !
 ! D55   D(16,15,18,20)        -63.8277         estimate D2E/DX2                !
 ! D56   D(16,15,18,21)         58.1496         estimate D2E/DX2                !
 ! D57   D(17,15,18,19)         63.7888         estimate D2E/DX2                !
 ! D58   D(17,15,18,20)        179.8986         estimate D2E/DX2                !
 ! D59   D(17,15,18,21)        -58.124          estimate D2E/DX2                !
 ! D60   D(15,18,21,22)        -58.0339         estimate D2E/DX2                !
 ! D61   D(15,18,21,23)         58.0449         estimate D2E/DX2                !
 ! D62   D(15,18,21,24)       -179.9773         estimate D2E/DX2                !
 ! D63   D(19,18,21,22)       -179.9579         estimate D2E/DX2                !
 ! D64   D(19,18,21,23)        -63.8791         estimate D2E/DX2                !
 ! D65   D(19,18,21,24)         58.0987         estimate D2E/DX2                !
 ! D66   D(20,18,21,22)         63.9213         estimate D2E/DX2                !
 ! D67   D(20,18,21,23)        180.0            estimate D2E/DX2                !
 ! D68   D(20,18,21,24)        -58.0221         estimate D2E/DX2                !
 ! D69   D(18,21,24,25)       -179.9708         estimate D2E/DX2                !
 ! D70   D(18,21,24,26)        -60.0917         estimate D2E/DX2                !
 ! D71   D(18,21,24,27)         60.0328         estimate D2E/DX2                !
 ! D72   D(22,21,24,25)         58.1629         estimate D2E/DX2                !
 ! D73   D(22,21,24,26)        178.042          estimate D2E/DX2                !
 ! D74   D(22,21,24,27)        -61.8335         estimate D2E/DX2                !
 ! D75   D(23,21,24,25)        -58.0269         estimate D2E/DX2                !
 ! D76   D(23,21,24,26)         61.8522         estimate D2E/DX2                !
 ! D77   D(23,21,24,27)       -178.0233         estimate D2E/DX2                !
 ! D78   D(34,32,33,35)        -59.186          estimate D2E/DX2                !
 ! D79   D(34,32,33,36)         81.7211         estimate D2E/DX2                !
 ! D80   D(34,32,33,39)       -168.9521         estimate D2E/DX2                !
 ! D81   D(33,32,34,37)       -150.4275         estimate D2E/DX2                !
 ! D82   D(33,32,34,38)        -12.9075         estimate D2E/DX2                !
 ! D83   D(33,32,34,40)        100.0283         estimate D2E/DX2                !
 ! D84   D(32,33,39,41)       -179.7274         estimate D2E/DX2                !
 ! D85   D(32,33,39,42)        -60.7404         estimate D2E/DX2                !
 ! D86   D(32,33,39,43)         61.3733         estimate D2E/DX2                !
 ! D87   D(35,33,39,41)         61.94           estimate D2E/DX2                !
 ! D88   D(35,33,39,42)       -179.073          estimate D2E/DX2                !
 ! D89   D(35,33,39,43)        -56.9593         estimate D2E/DX2                !
 ! D90   D(36,33,39,41)        -62.429          estimate D2E/DX2                !
 ! D91   D(36,33,39,42)         56.558          estimate D2E/DX2                !
 ! D92   D(36,33,39,43)        178.6717         estimate D2E/DX2                !
 ! D93   D(32,34,40,44)         58.644          estimate D2E/DX2                !
 ! D94   D(32,34,40,45)        -62.4662         estimate D2E/DX2                !
 ! D95   D(32,34,40,46)        177.7749         estimate D2E/DX2                !
 ! D96   D(37,34,40,44)        -56.1731         estimate D2E/DX2                !
 ! D97   D(37,34,40,45)       -177.2833         estimate D2E/DX2                !
 ! D98   D(37,34,40,46)         62.9578         estimate D2E/DX2                !
 ! D99   D(38,34,40,44)        178.9081         estimate D2E/DX2                !
 ! D100  D(38,34,40,45)         57.7978         estimate D2E/DX2                !
 ! D101  D(38,34,40,46)        -61.9611         estimate D2E/DX2                !
 --------------------------------------------------------------------------------
 Trust Radius=3.00D-01 FncErr=1.00D-07 GrdErr=1.00D-06
 Number of steps in this run= 256 maximum allowed number of steps= 276.
 GradGradGradGradGradGradGradGradGradGradGradGradGradGradGradGradGradGrad

                          Input orientation:                          
 ---------------------------------------------------------------------
 Center     Atomic      Atomic             Coordinates (Angstroms)
 Number     Number       Type             X           Y           Z
 ---------------------------------------------------------------------
      1          6           0        0.035000   -0.965000   -0.211000
      2          6           0        1.374000   -0.982000   -0.135000
      3          6           0        0.709000    1.075000    0.137000
      4          7           0       -0.367000    0.341000   -0.034000
      5          1           0       -0.664000   -1.756000   -0.367000
      6          1           0        2.070000   -1.789000   -0.213000
      7          1           0        0.712000    2.132000    0.300000
      8          7           0        1.782000    0.316000    0.084000
      9          6           0       -1.760000    0.832000   -0.070000
     10          1           0       -1.760000    1.806000    0.398000
     11          1           0       -2.342000    0.168000    0.555000
     12          6           0       -2.314000    0.899000   -1.491000
     13          1           0       -2.264000   -0.087000   -1.945000
     14          1           0       -1.684000    1.553000   -2.088000
     15          6           0       -3.759000    1.404000   -1.506000
     16          1           0       -4.378000    0.749000   -0.897000
     17          1           0       -3.803000    2.388000   -1.044000
     18          6           0       -4.339000    1.481000   -2.920000
     19          1           0       -3.718000    2.136000   -3.529000
     20          1           0       -4.293000    0.497000   -3.382000
     21          6           0       -5.783000    1.986000   -2.945000
     22          1           0       -6.403000    1.332000   -2.336000
     23          1           0       -5.829000    2.970000   -2.483000
     24          6           0       -6.359000    2.061000   -4.359000
     25          1           0       -7.381000    2.422000   -4.343000
     26          1           0       -5.780000    2.735000   -4.983000
     27          1           0       -6.359000    1.086000   -4.835000
     28          6           0        3.170000    0.761000    0.238000
     29          1           0        3.612000    0.267000    1.091000
     30          1           0        3.723000    0.523000   -0.658000
     31          1           0        3.180000    1.828000    0.395000
     32          7           0        0.114671    7.066859   -1.178344
     33         16           0       -0.845329    6.164859   -2.050344
     34         16           0       -0.317329    7.921859    0.063656
     35          8           0       -1.521329    5.124859   -1.333344
     36          8           0       -1.588329    6.884859   -3.042344
     37          8           0        0.524671    9.071859    0.189656
     38          8           0       -1.732329    8.077859    0.219656
     39          6           0        0.449671    5.304859   -2.990344
     40          6           0        0.181671    6.890859    1.477656
     41          9           0       -0.130329    4.464859   -3.826344
     42          9           0        1.180671    6.135859   -3.695344
     43          9           0        1.242671    4.612859   -2.205344
     44          9           0        1.472671    6.642859    1.451656
     45          9           0       -0.457329    5.746859    1.492656
     46          9           0       -0.087329    7.526859    2.600656
 ---------------------------------------------------------------------
                    Distance matrix (angstroms):
                    1          2          3          4          5
     1  C    0.000000
     2  C    1.341263   0.000000
     3  C    2.176460   2.178866   0.000000
     4  N    1.377886   2.188975   1.313687   0.000000
     5  H    1.067060   2.192338   3.186488   2.143947   0.000000
     6  H    2.195497   1.068527   3.190191   3.241591   2.738533
     7  H    3.211053   3.213171   1.069498   2.117422   4.177895
     8  N    2.186320   1.378125   1.315378   2.152382   3.237206
     9  C    2.543839   3.621709   2.489550   1.477439   2.826158
    10  H    3.357283   4.228355   2.588135   2.067196   3.804509
    11  H    2.742366   3.950602   3.210292   2.068206   2.714322
    12  C    3.260475   4.356402   3.438007   2.494999   3.321882
    13  H    3.010488   4.160789   3.810997   2.726484   2.799222
    14  H    3.580281   4.426262   3.302356   2.724399   3.866746
    15  C    4.656568   5.824116   4.771867   3.847391   4.567488
    16  H    4.783614   6.054957   5.201250   4.123027   4.511067
    17  H    5.163985   6.243758   4.845294   4.125095   5.242555
    18  C    5.696795   6.816228   5.915437   5.040375   5.522826
    19  H    5.891548   6.868015   5.844964   5.163938   5.871356
    20  H    5.560959   6.696666   6.143081   5.162065   5.228372
    21  C    7.073350   8.241831   7.243943   6.364982   6.844911
    22  H    7.158190   8.407183   7.534077   6.535639   6.807997
    23  H    7.418403   8.544859   7.293893   6.537789   7.313669
    24  C    8.200355   9.322087   8.434621   7.587364   7.933384
    25  H    9.140145  10.292935   9.345208   8.490833   8.853381
    26  H    8.383091   9.407386   8.430725   7.715206   8.224962
    27  H    8.152988   9.282560   8.641616   7.714188   7.776440
    28  C    3.606786   2.530374   2.483006   3.572220   4.626107
    29  H    4.000995   2.841077   3.160758   4.135643   4.949997
    30  H    4.001912   2.838372   3.165584   4.141328   4.952201
    31  H    4.249601   3.382105   2.596038   3.869938   5.310559
    32  N    8.090295   8.213319   6.163257   6.839497   8.894237
    33  S    7.415731   7.724737   5.753875   6.181568   8.099786
    34  S    8.898081   9.065251   6.923743   7.581651   9.693637
    35  O    6.384998   6.863868   4.851560   5.089802   7.001076
    36  O    8.501294   8.894690   7.010022   7.305058   9.092651
    37  O   10.056781  10.094892   7.999157   8.779123  10.907124
    38  O    9.224002   9.584159   7.416668   7.860500   9.909101
    39  C    6.870796   6.966489   5.266806   5.834965   7.614324
    40  C    8.036641   8.124298   5.991632   6.744390   8.881784
    41  F    6.525444   6.749615   5.282397   5.607504   7.137994
    42  F    7.992210   7.960989   6.365660   7.027170   8.761400
    43  F    6.045527   5.967078   4.276427   5.055152   6.897628
    44  F    7.919018   7.788818   5.771704   6.730899   8.855152
    45  F    6.942182   7.161046   5.002439   5.618020   7.732654
    46  F    8.946063   9.056488   6.951995   7.658734   9.762736
                    6          7          8          9         10
     6  H    0.000000
     7  H    4.181097   0.000000
     8  N    2.145269   2.118823   0.000000
     9  C    4.643166   2.817390   3.582700   0.000000
    10  H    5.288312   2.495328   3.855445   1.080602   0.000000
    11  H    4.887271   3.639950   4.153447   1.081779   1.745399
    12  C    5.298876   3.726211   4.426932   1.526645   2.167461
    13  H    4.967915   4.338267   4.544157   2.148069   3.054032
    14  H    5.364430   3.431997   4.273278   2.144281   2.499996
    15  C    6.770845   4.876624   5.866389   2.526911   2.789771
    16  H    6.963189   5.408660   6.252635   2.746769   3.106155
    17  H    7.254655   4.717743   6.062821   2.746573   2.567477
    18  C    7.687394   6.025347   6.917216   3.898069   4.214972
    19  H    7.739666   5.855438   6.827603   4.183164   4.400454
    20  H    7.467002   6.424980   6.996538   4.183020   4.734762
    21  C    9.131487   7.261981   8.318231   5.077585   5.233792
    22  H    9.275748   7.629661   8.595515   5.190588   5.408963
    23  H    9.497114   7.157654   8.459345   5.191375   5.119748
    24  C   10.151840   8.468197   9.437222   6.407555   6.621546
    25  H   11.140504   9.334784  10.392023   7.237560   7.379172
    26  H   10.239237   8.391648   9.418593   6.627170   6.780752
    27  H   10.033770   8.801215   9.542816   6.627258   7.003820
    28  C    2.813521   2.815182   1.465703   4.940122   5.042075
    29  H    2.881895   3.537500   2.089342   5.524991   5.630911
    30  H    2.876765   3.545810   2.088275   5.523089   5.729268
    31  H    3.832030   2.488466   2.082611   5.060814   4.940050
    32  N    9.120386   5.186052   7.067362   6.604263   5.803093
    33  S    8.668267   4.920706   6.757769   5.761751   5.082388
    34  S   10.003833   5.885393   7.890291   7.236385   6.292601
    35  O    7.871103   4.075877   6.003830   4.481255   3.750912
    36  O    9.829771   6.249196   8.017671   6.745473   6.136795
    37  O   10.977634   6.943264   8.846305   8.554673   7.619438
    38  O   10.582996   6.429187   8.521465   7.251699   6.274456
    39  C    7.788578   4.578451   6.009610   5.780790   5.348415
    40  C    9.042348   4.931010   6.908842   6.547908   5.549012
    41  F    7.550395   4.814402   6.013387   5.473903   5.250757
    42  F    8.701783   5.675678   6.965328   7.065521   6.644599
    43  F    6.755569   3.565533   4.898466   5.279264   4.865377
    44  F    8.615343   4.717286   6.480379   6.821414   5.912323
    45  F    8.129319   3.982081   6.040955   5.319275   4.292505
    46  F    9.967746   5.919160   7.862852   7.399417   6.354349
                   11         12         13         14         15
    11  H    0.000000
    12  C    2.172846   0.000000
    13  H    2.514182   1.086652   0.000000
    14  H    3.055591   1.086750   1.745408   0.000000
    15  C    2.789858   1.530776   2.156578   2.160220   0.000000
    16  H    2.567326   2.153005   2.503237   3.053282   1.087689
    17  H    3.101568   2.152685   3.050565   2.505458   1.087950
    18  C    4.217535   2.545857   2.777566   2.783241   1.530270
    19  H    4.737664   2.766736   3.092717   2.559986   2.151751
    20  H    4.406201   2.766573   2.553990   3.097814   2.151088
    21  C    5.234081   3.915309   4.204841   4.209957   2.550690
    22  H    5.119033   4.197789   4.392922   4.730677   2.772151
    23  H    5.407385   4.198610   4.726935   4.398288   2.773407
    24  C    6.623227   5.092906   5.216352   5.222177   3.915515
    25  H    7.379867   6.010651   6.182975   6.188376   4.712088
    26  H    7.005625   5.251487   5.436486   5.153190   4.236217
    27  H    6.784623   5.251603   5.147529   5.442400   4.235961
    28  C    5.552863   5.751760   5.917174   5.440483   7.173983
    29  H    5.978897   6.494892   6.623442   6.309315   7.897393
    30  H    6.195290   6.105787   6.154075   5.686954   7.581266
    31  H    5.768335   5.882523   6.227356   5.468035   7.207170
    32  N    7.525555   6.636165   7.577832   5.870719   6.868818
    33  S    6.707471   5.495374   6.411667   4.687647   5.608170
    34  S    8.028888   7.464865   8.483281   6.860013   7.536008
    35  O    5.367476   4.302449   5.299921   3.654333   4.345317
    36  O    7.656703   6.226056   7.089959   5.417439   6.091961
    37  O    9.361089   8.813529   9.809085   8.160833   8.945454
    38  O    7.940405   7.402750   8.463648   6.921084   7.185101
    39  C    6.837413   5.412717   6.126084   4.409447   5.927301
    40  C    7.239962   7.137484   8.147785   6.684862   7.384898
    41  F    6.523087   4.789322   5.367628   3.730236   5.283949
    42  F    8.129575   6.670574   7.324851   5.638484   7.182205
    43  F    6.342408   5.191623   5.869685   4.235790   5.983525
    44  F    7.568323   7.482648   8.413738   6.957040   7.972688
    45  F    5.962789   5.987585   7.008242   5.649272   6.225223
    46  F    7.963734   8.101125   9.130813   7.760145   8.236213
                   16         17         18         19         20
    16  H    0.000000
    17  H    1.743145   0.000000
    18  C    2.151714   2.151586   0.000000
    19  H    3.047424   2.499191   1.088828   0.000000
    20  H    2.499191   3.046674   1.088033   1.743145   0.000000
    21  C    2.774617   2.774131   1.529963   2.151228   2.151323
    22  H    2.551712   3.089401   2.150198   3.046127   2.498688
    23  H    3.090896   2.552278   2.151323   2.499198   3.046839
    24  C    4.198946   4.198725   2.547061   2.769369   2.769293
    25  H    4.867428   4.866892   3.487718   3.763238   3.763627
    26  H    4.754492   4.420934   2.811577   2.593214   3.127781
    27  H    4.421060   4.753948   2.811343   3.127781   2.593547
    28  C    7.632868   7.274159   8.177802   7.970286   8.298823
    29  H    8.247701   8.002443   8.987787   8.863772   9.085684
    30  H    8.107675   7.763240   8.427945   8.137130   8.466233
    31  H    7.743182   7.151686   8.224658   7.941980   8.478385
    32  N    7.757486   6.103927   7.353256   6.672955   8.212595
    33  S    6.568219   4.901552   5.907671   5.164336   6.766415
    34  S    8.298302   6.633280   8.158475   7.612352   9.099838
    35  O    5.243960   3.574933   4.871802   4.310400   5.770289
    36  O    7.073439   5.396285   6.064887   5.227236   6.945168
    37  O    9.720442   8.057582   9.536582   8.940627  10.463981
    38  O    7.871383   6.185386   7.756979   7.300754   8.774873
    39  C    6.960198   5.511945   6.128476   5.263203   6.764750
    40  C    8.009496   6.520130   8.309177   7.929863   9.193496
    41  F    6.358567   5.054038   5.238109   4.287585   5.767944
    42  F    8.230906   6.775917   7.261931   6.326415   7.864858
    43  F    6.945007   5.635381   6.440057   5.700452   6.997748
    44  F    8.630418   7.222523   8.918054   8.488921   9.714874
    45  F    6.786805   5.376809   7.261987   6.991946   8.126233
    46  F    8.751162   7.314206   9.225333   8.933970  10.143903
                   21         22         23         24         25
    21  C    0.000000
    22  H    1.087657   0.000000
    23  H    1.088033   1.741875   0.000000
    24  C    1.528659   2.150792   2.150943   0.000000
    25  H    2.167511   2.484478   2.483668   1.084002   0.000000
    26  H    2.171279   3.059926   2.511499   1.085768   1.752361
    27  H    2.171146   2.511464   3.059781   1.084989   1.752554
    28  C    9.580622   9.929443   9.657408  10.659468  11.621879
    29  H   10.368717  10.638552  10.450462  11.503990  12.450640
    30  H    9.886090  10.295924  10.027918  10.849404  11.852605
    31  H    9.566396   9.976887   9.526234  10.660550  11.590349
    32  N    7.982401   8.758357   7.335776   8.779728   9.368823
    33  S    6.530228   7.370606   5.935596   7.250664   7.872755
    34  S    8.611620   9.285472   7.834851   9.508488   9.978102
    35  O    5.532785   6.262732   4.951884   6.476488   7.120339
    36  O    6.450083   7.383375   5.798472   6.911042   7.427238
    37  O    9.991105  10.690042   9.205700  10.827158  11.281190
    38  O    7.970805   8.593786   7.083593   8.864128   9.204024
    39  C    7.061379   7.948011   6.717937   7.665106   8.453400
    40  C    8.899148   9.423523   8.196835  10.008720  10.537777
    41  F    6.234918   7.168147   6.042684   6.697657   7.550658
    42  F    8.141073   9.079480   7.786394   8.596020   9.354914
    43  F    7.537078   8.320901   7.265302   8.302748   9.150800
    44  F    9.677897  10.226327   9.071153  10.774611  11.392155
    45  F    7.886674   8.336702   7.236825   9.091598   9.646077
    46  F    9.690000  10.130872   8.920500  10.846487  11.290332
                   26         27         28         29         30
    26  H    0.000000
    27  H    1.753952   0.000000
    28  C   10.547892  10.800129   0.000000
    29  H   11.454002  11.627944   1.080282   0.000000
    30  H   10.672656  10.927535   1.079476   1.771118   0.000000
    31  H   10.489382  10.903944   1.078535   1.762884   1.762579
    32  N    8.245457   9.542024   7.148771   7.976172   7.490854
    33  S    6.686956   7.996855   7.110631   8.032470   7.391808
    34  S    9.067140  10.355076   7.966791   8.665560   8.460979
    35  O    6.096532   7.209511   6.597041   7.471767   7.009721
    36  O    6.209476   7.720084   8.420451   9.376781   8.623721
    37  O   10.327683  11.679300   8.721839   9.373877   9.166833
    38  O    8.485129   9.789879   8.807360   9.504242   9.359850
    39  C    7.027351   8.219461   6.202342   7.213717   6.246654
    40  C    9.723825  10.785472   6.931236   7.469416   7.592870
    41  F    6.020719   7.157543   6.413239   7.470430   6.358050
    42  F    7.853333   9.145848   6.951096   7.953864   6.869722
    43  F    7.782007   8.782894   4.951903   5.946940   5.027251
    44  F   10.453583  11.477622   6.241006   6.734863   6.853270
    45  F    8.907090   9.828152   6.292096   6.837370   7.027743
    46  F   10.624512  11.666512   7.872051   8.286715   8.613448
                   31         32         33         34         35
    31  H    0.000000
    32  N    6.270351   0.000000
    33  S    6.402447   1.579743   0.000000
    34  S    7.033933   1.568507   2.799076   0.000000
    35  O    5.996578   2.543990   1.432712   3.350289   0.000000
    36  O    7.753974   2.531369   1.433357   3.512555   2.454133
    37  O    7.717929   2.461615   3.917288   1.430853   4.699410
    38  O    7.951255   2.527436   3.098264   1.432095   3.343133
    39  C    5.568106   2.549552   1.816652   4.094373   2.581257
    40  C    5.982864   2.662668   3.745476   1.819714   3.731044
    41  F    5.977545   3.720529   2.560352   5.207487   2.930108
    42  F    6.267845   2.887630   2.609893   4.423108   3.728534
    43  F    4.274397   2.889503   2.606237   4.304816   2.943166
    44  F    5.216739   2.990124   4.226773   2.601247   4.361718
    45  F    5.458248   3.033781   3.588609   2.606198   3.083060
    46  F    6.929455   3.812249   4.905243   2.577847   4.827247
                   36         37         38         39         40
    36  O    0.000000
    37  O    4.437743   0.000000
    38  O    3.476295   2.466371   0.000000
    39  C    2.579253   4.930346   4.770194   0.000000
    40  C    4.854208   2.556043   2.579715   4.748710   0.000000
    41  F    2.932033   6.146684   5.655996   1.319430   5.840825
    42  F    2.941899   4.913620   5.252062   1.312230   5.322401
    43  F    3.725200   5.112165   5.170829   1.312988   4.458643
    44  F    5.442823   2.896789   3.721434   4.750593   1.314862
    45  F    4.810450   3.703749   2.946136   4.595139   1.310451
    46  F    5.874403   2.928223   2.945978   6.040276   1.318327
                   41         42         43         44         45
    41  F    0.000000
    42  F    2.127939   0.000000
    43  F    2.129477   2.131542   0.000000
    44  F    5.930479   5.180147   4.188968   0.000000
    45  F    5.481078   5.454329   4.225063   2.128238   0.000000
    46  F    7.119271   6.571326   5.775633   2.129614   2.129076
                   46
    46  F    0.000000
 Stoichiometry    C12H19F6N3O4S2
 Framework group  C1[X(C12H19F6N3O4S2)]
 Deg. of freedom   132
 Full point group                 C1      NOp   1
 Largest Abelian subgroup         C1      NOp   1
 Largest concise Abelian subgroup C1      NOp   1
                         Standard orientation:                         
 ---------------------------------------------------------------------
 Center     Atomic      Atomic             Coordinates (Angstroms)
 Number     Number       Type             X           Y           Z
 ---------------------------------------------------------------------
      1          6           0        4.504637   -2.802569   -0.311525
      2          6           0        4.127634   -3.900013    0.361136
      3          6           0        2.331004   -2.802735   -0.200611
      4          7           0        3.357376   -2.123994   -0.660661
      5          1           0        5.475123   -2.447659   -0.577631
      6          1           0        4.703985   -4.687247    0.796833
      7          1           0        1.305894   -2.521776   -0.319093
      8          7           0        2.750977   -3.882488    0.422265
      9          6           0        3.296991   -0.840120   -1.389254
     10          1           0        2.288747   -0.741594   -1.765334
     11          1           0        3.957104   -0.932588   -2.241279
     12          6           0        3.678362    0.345451   -0.506292
     13          1           0        4.680925    0.196294   -0.114587
     14          1           0        3.008419    0.382393    0.348597
     15          6           0        3.615255    1.664322   -1.280807
     16          1           0        4.280603    1.612248   -2.139683
     17          1           0        2.611255    1.803977   -1.675923
     18          6           0        3.993160    2.870222   -0.417837
     19          1           0        3.327249    2.920724    0.442138
     20          1           0        4.996596    2.728995   -0.021621
     21          6           0        3.931798    4.193421   -1.183452
     22          1           0        4.596490    4.142480   -2.042862
     23          1           0        2.928362    4.334648   -1.579668
     24          6           0        4.310451    5.395483   -0.318313
     25          1           0        4.256832    6.315995   -0.888263
     26          1           0        3.641604    5.493267    0.531378
     27          1           0        5.321255    5.300702    0.064433
     28          6           0        1.911097   -4.898074    1.063726
     29          1           0        2.076853   -5.853214    0.587026
     30          1           0        2.159959   -4.957115    2.112463
     31          1           0        0.875851   -4.616081    0.954255
     32          7           0       -2.853858    0.415905    0.661537
     33         16           0       -1.560574    1.303707    0.848119
     34         16           0       -3.785569    0.416897   -0.600257
     35          8           0       -0.539999    1.107645   -0.138112
     36          8           0       -1.825227    2.644978    1.278774
     37          8           0       -5.126957    0.089450   -0.225027
     38          8           0       -3.564508    1.503650   -1.506347
     39          6           0       -0.928710    0.468058    2.332256
     40          6           0       -3.245998   -1.056278   -1.522199
     41          9           0        0.191991    1.060213    2.698694
     42          9           0       -1.771230    0.542239    3.335554
     43          9           0       -0.662460   -0.796934    2.102379
     44          9           0       -3.372168   -2.143952   -0.794252
     45          9           0       -1.996051   -0.958457   -1.903442
     46          9           0       -3.994177   -1.198540   -2.598291
 ---------------------------------------------------------------------
 Rotational constants (GHZ):      0.1537964      0.0968369      0.0767365
 Standard basis: 6-311+G(d) (5D, 7F)
 There are   667 symmetry adapted basis functions of A   symmetry.
 Integral buffers will be    131072 words long.
 Raffenetti 2 integral format.
 Two-electron integral symmetry is turned on.
   667 basis functions,  1095 primitive gaussians,   694 cartesian basis functions
   115 alpha electrons      115 beta electrons
       nuclear repulsion energy      3265.2083495059 Hartrees.
 NAtoms=   46 NActive=   46 NUniq=   46 SFac= 7.50D-01 NAtFMM=   80 NAOKFM=F Big=F
 ------------------------------------------------------------------------------
 Polarizable Continuum Model (PCM)
 =================================
 Model                : C-PCM.
 Atomic radii         : UFF (Universal Force Field).
 Polarization charges : Total charges.
 Charge compensation  : None.
 Solution method      : Matrix inversion.
 Cavity type          : Scaled VdW (van der Waals Surface) (Alpha=1.100).
 Cavity algorithm     : GePol (No added spheres)
                        Default sphere list used, NSphG=   46.
                        Lebedev-Laikov grids with approx.  5.0 points / Ang**2.
                        Smoothing algorithm: Karplus/York (Gamma=1.0000).
                        Polarization charges: spherical gaussians, with
                                              point-specific exponents (IZeta= 3).
                        Self-potential: point-specific (ISelfS= 7).
                        Self-field    : sphere-specific E.n sum rule (ISelfD= 2).
 1st derivatives      : Analytical E(r).r(x)/FMM algorithm (CHGder, D1EAlg=3).
                        Cavity 1st derivative terms included.
 Solvent              : Water, Eps=  78.355300 Eps(inf)=   1.777849
 ------------------------------------------------------------------------------
 One-electron integrals computed using PRISM.
 PrsmSu:  requested number of processors reduced to:   8 ShMem   1 Linda.
 NBasis=   667 RedAO= T  NBF=   667
 NBsUse=   667 1.00D-06 NBFU=   667
 Harris functional with IExCor= 1009 diagonalized for initial guess.
 ExpMin= 4.05D-02 ExpMax= 9.34D+04 ExpMxC= 3.17D+03 IAcc=2 IRadAn=         0 AccDes= 0.00D+00
 HarFok:  IExCor= 1009 AccDes= 0.00D+00 IRadAn=         0 IDoV= 1
 ScaDFX=  1.000000  1.000000  1.000000  1.000000
 FoFCou: FMM=F IPFlag=           0 FMFlag=      100000 FMFlg1=           0
         NFxFlg=           0 DoJE=T BraDBF=F KetDBF=T FulRan=T
         Omega=  0.000000  0.000000  1.000000  0.000000  0.000000 ICntrl=     500 IOpCl=  0
         NMat0=    1 NMatS0=    1 NMatT0=    0 NMatD0=    1 NMtDS0=    0 NMtDT0=    0
         I1Cent=           4 NGrid=           0.
 Petite list used in FoFCou.
 Initial guess orbital symmetries:
       Occupied  (A) (A) (A) (A) (A) (A) (A) (A) (A) (A) (A) (A)
                 (A) (A) (A) (A) (A) (A) (A) (A) (A) (A) (A) (A)
                 (A) (A) (A) (A) (A) (A) (A) (A) (A) (A) (A) (A)
                 (A) (A) (A) (A) (A) (A) (A) (A) (A) (A) (A) (A)
                 (A) (A) (A) (A) (A) (A) (A) (A) (A) (A) (A) (A)
                 (A) (A) (A) (A) (A) (A) (A) (A) (A) (A) (A) (A)
                 (A) (A) (A) (A) (A) (A) (A) (A) (A) (A) (A) (A)
                 (A) (A) (A) (A) (A) (A) (A) (A) (A) (A) (A) (A)
                 (A) (A) (A) (A) (A) (A) (A) (A) (A) (A) (A) (A)
                 (A) (A) (A) (A) (A) (A) (A)
       Virtual   (A) (A) (A) (A) (A) (A) (A) (A) (A) (A) (A) (A)
                 (A) (A) (A) (A) (A) (A) (A) (A) (A) (A) (A) (A)
                 (A) (A) (A) (A) (A) (A) (A) (A) (A) (A) (A) (A)
                 (A) (A) (A) (A) (A) (A) (A) (A) (A) (A) (A) (A)
                 (A) (A) (A) (A) (A) (A) (A) (A) (A) (A) (A) (A)
                 (A) (A) (A) (A) (A) (A) (A) (A) (A) (A) (A) (A)
                 (A) (A) (A) (A) (A) (A) (A) (A) (A) (A) (A) (A)
                 (A) (A) (A) (A) (A) (A) (A) (A) (A) (A) (A) (A)
                 (A) (A) (A) (A) (A) (A) (A) (A) (A) (A) (A) (A)
                 (A) (A) (A) (A) (A) (A) (A) (A) (A) (A) (A) (A)
                 (A) (A) (A) (A) (A) (A) (A) (A) (A) (A) (A) (A)
                 (A) (A) (A) (A) (A) (A) (A) (A) (A) (A) (A) (A)
                 (A) (A) (A) (A) (A) (A) (A) (A) (A) (A) (A) (A)
                 (A) (A) (A) (A) (A) (A) (A) (A) (A) (A) (A) (A)
                 (A) (A) (A) (A) (A) (A) (A) (A) (A) (A) (A) (A)
                 (A) (A) (A) (A) (A) (A) (A) (A) (A) (A) (A) (A)
                 (A) (A) (A) (A) (A) (A) (A) (A) (A) (A) (A) (A)
                 (A) (A) (A) (A) (A) (A) (A) (A) (A) (A) (A) (A)
                 (A) (A) (A) (A) (A) (A) (A) (A) (A) (A) (A) (A)
                 (A) (A) (A) (A) (A) (A) (A) (A) (A) (A) (A) (A)
                 (A) (A) (A) (A) (A) (A) (A) (A) (A) (A) (A) (A)
                 (A) (A) (A) (A) (A) (A) (A) (A) (A) (A) (A) (A)
                 (A) (A) (A) (A) (A) (A) (A) (A) (A) (A) (A) (A)
                 (A) (A) (A) (A) (A) (A) (A) (A) (A) (A) (A) (A)
                 (A) (A) (A) (A) (A) (A) (A) (A) (A) (A) (A) (A)
                 (A) (A) (A) (A) (A) (A) (A) (A) (A) (A) (A) (A)
                 (A) (A) (A) (A) (A) (A) (A) (A) (A) (A) (A) (A)
                 (A) (A) (A) (A) (A) (A) (A) (A) (A) (A) (A) (A)
                 (A) (A) (A) (A) (A) (A) (A) (A) (A) (A) (A) (A)
                 (A) (A) (A) (A) (A) (A) (A) (A) (A) (A) (A) (A)
                 (A) (A) (A) (A) (A) (A) (A) (A) (A) (A) (A) (A)
                 (A) (A) (A) (A) (A) (A) (A) (A) (A) (A) (A) (A)
                 (A) (A) (A) (A) (A) (A) (A) (A) (A) (A) (A) (A)
                 (A) (A) (A) (A) (A) (A) (A) (A) (A) (A) (A) (A)
                 (A) (A) (A) (A) (A) (A) (A) (A) (A) (A) (A) (A)
                 (A) (A) (A) (A) (A) (A) (A) (A) (A) (A) (A) (A)
                 (A) (A) (A) (A) (A) (A) (A) (A) (A) (A) (A) (A)
                 (A) (A) (A) (A) (A) (A) (A) (A) (A) (A) (A) (A)
                 (A) (A) (A) (A) (A) (A) (A) (A) (A) (A) (A) (A)
                 (A) (A) (A) (A) (A) (A) (A) (A) (A) (A) (A) (A)
                 (A) (A) (A) (A) (A) (A) (A) (A) (A) (A) (A) (A)
                 (A) (A) (A) (A) (A) (A) (A) (A) (A) (A) (A) (A)
                 (A) (A) (A) (A) (A) (A) (A) (A) (A) (A) (A) (A)
                 (A) (A) (A) (A) (A) (A) (A) (A) (A) (A) (A) (A)
                 (A) (A) (A) (A) (A) (A) (A) (A) (A) (A) (A) (A)
                 (A) (A) (A) (A) (A) (A) (A) (A) (A) (A) (A) (A)
 The electronic state of the initial guess is 1-A.
 Requested convergence on RMS density matrix=1.00D-08 within 128 cycles.
 Requested convergence on MAX density matrix=1.00D-06.
 Requested convergence on             energy=1.00D-06.
 No special actions if energy rises.
 CoulSu:  requested number of processors reduced to:  11 ShMem   1 Linda.
 CoulSu:  requested number of processors reduced to:  10 ShMem   1 Linda.
 CoulSu:  requested number of processors reduced to:  11 ShMem   1 Linda.
 CoulSu:  requested number of processors reduced to:  10 ShMem   1 Linda.
 CoulSu:  requested number of processors reduced to:  11 ShMem   1 Linda.
 CoulSu:  requested number of processors reduced to:  10 ShMem   1 Linda.
 CoulSu:  requested number of processors reduced to:  11 ShMem   1 Linda.
 CoulSu:  requested number of processors reduced to:  10 ShMem   1 Linda.
 CoulSu:  requested number of processors reduced to:  11 ShMem   1 Linda.
 CoulSu:  requested number of processors reduced to:  10 ShMem   1 Linda.
 CoulSu:  requested number of processors reduced to:  11 ShMem   1 Linda.
 CoulSu:  requested number of processors reduced to:  10 ShMem   1 Linda.
 CoulSu:  requested number of processors reduced to:  11 ShMem   1 Linda.
 CoulSu:  requested number of processors reduced to:  10 ShMem   1 Linda.
 CoulSu:  requested number of processors reduced to:  11 ShMem   1 Linda.
 CoulSu:  requested number of processors reduced to:  10 ShMem   1 Linda.
 CoulSu:  requested number of processors reduced to:  11 ShMem   1 Linda.
 CoulSu:  requested number of processors reduced to:  10 ShMem   1 Linda.
 CoulSu:  requested number of processors reduced to:  11 ShMem   1 Linda.
 CoulSu:  requested number of processors reduced to:  10 ShMem   1 Linda.
 CoulSu:  requested number of processors reduced to:  11 ShMem   1 Linda.
 CoulSu:  requested number of processors reduced to:  10 ShMem   1 Linda.
 CoulSu:  requested number of processors reduced to:  11 ShMem   1 Linda.
 CoulSu:  requested number of processors reduced to:  10 ShMem   1 Linda.
 CoulSu:  requested number of processors reduced to:  11 ShMem   1 Linda.
 CoulSu:  requested number of processors reduced to:  10 ShMem   1 Linda.
 CoulSu:  requested number of processors reduced to:  11 ShMem   1 Linda.
 CoulSu:  requested number of processors reduced to:  10 ShMem   1 Linda.
 CoulSu:  requested number of processors reduced to:  11 ShMem   1 Linda.
 CoulSu:  requested number of processors reduced to:  10 ShMem   1 Linda.
 Error on total polarization charges =  0.01521
 SCF Done:  E(RM062X) =  -2329.02870714     A.U. after   14 cycles
             Convg  =    0.5292D-08             -V/T =  2.0019

 **********************************************************************

            Population analysis using the SCF density.

 **********************************************************************

 Orbital symmetries:
       Occupied  (A) (A) (A) (A) (A) (A) (A) (A) (A) (A) (A) (A)
                 (A) (A) (A) (A) (A) (A) (A) (A) (A) (A) (A) (A)
                 (A) (A) (A) (A) (A) (A) (A) (A) (A) (A) (A) (A)
                 (A) (A) (A) (A) (A) (A) (A) (A) (A) (A) (A) (A)
                 (A) (A) (A) (A) (A) (A) (A) (A) (A) (A) (A) (A)
                 (A) (A) (A) (A) (A) (A) (A) (A) (A) (A) (A) (A)
                 (A) (A) (A) (A) (A) (A) (A) (A) (A) (A) (A) (A)
                 (A) (A) (A) (A) (A) (A) (A) (A) (A) (A) (A) (A)
                 (A) (A) (A) (A) (A) (A) (A) (A) (A) (A) (A) (A)
                 (A) (A) (A) (A) (A) (A) (A)
       Virtual   (A) (A) (A) (A) (A) (A) (A) (A) (A) (A) (A) (A)
                 (A) (A) (A) (A) (A) (A) (A) (A) (A) (A) (A) (A)
                 (A) (A) (A) (A) (A) (A) (A) (A) (A) (A) (A) (A)
                 (A) (A) (A) (A) (A) (A) (A) (A) (A) (A) (A) (A)
                 (A) (A) (A) (A) (A) (A) (A) (A) (A) (A) (A) (A)
                 (A) (A) (A) (A) (A) (A) (A) (A) (A) (A) (A) (A)
                 (A) (A) (A) (A) (A) (A) (A) (A) (A) (A) (A) (A)
                 (A) (A) (A) (A) (A) (A) (A) (A) (A) (A) (A) (A)
                 (A) (A) (A) (A) (A) (A) (A) (A) (A) (A) (A) (A)
                 (A) (A) (A) (A) (A) (A) (A) (A) (A) (A) (A) (A)
                 (A) (A) (A) (A) (A) (A) (A) (A) (A) (A) (A) (A)
                 (A) (A) (A) (A) (A) (A) (A) (A) (A) (A) (A) (A)
                 (A) (A) (A) (A) (A) (A) (A) (A) (A) (A) (A) (A)
                 (A) (A) (A) (A) (A) (A) (A) (A) (A) (A) (A) (A)
                 (A) (A) (A) (A) (A) (A) (A) (A) (A) (A) (A) (A)
                 (A) (A) (A) (A) (A) (A) (A) (A) (A) (A) (A) (A)
                 (A) (A) (A) (A) (A) (A) (A) (A) (A) (A) (A) (A)
                 (A) (A) (A) (A) (A) (A) (A) (A) (A) (A) (A) (A)
                 (A) (A) (A) (A) (A) (A) (A) (A) (A) (A) (A) (A)
                 (A) (A) (A) (A) (A) (A) (A) (A) (A) (A) (A) (A)
                 (A) (A) (A) (A) (A) (A) (A) (A) (A) (A) (A) (A)
                 (A) (A) (A) (A) (A) (A) (A) (A) (A) (A) (A) (A)
                 (A) (A) (A) (A) (A) (A) (A) (A) (A) (A) (A) (A)
                 (A) (A) (A) (A) (A) (A) (A) (A) (A) (A) (A) (A)
                 (A) (A) (A) (A) (A) (A) (A) (A) (A) (A) (A) (A)
                 (A) (A) (A) (A) (A) (A) (A) (A) (A) (A) (A) (A)
                 (A) (A) (A) (A) (A) (A) (A) (A) (A) (A) (A) (A)
                 (A) (A) (A) (A) (A) (A) (A) (A) (A) (A) (A) (A)
                 (A) (A) (A) (A) (A) (A) (A) (A) (A) (A) (A) (A)
                 (A) (A) (A) (A) (A) (A) (A) (A) (A) (A) (A) (A)
                 (A) (A) (A) (A) (A) (A) (A) (A) (A) (A) (A) (A)
                 (A) (A) (A) (A) (A) (A) (A) (A) (A) (A) (A) (A)
                 (A) (A) (A) (A) (A) (A) (A) (A) (A) (A) (A) (A)
                 (A) (A) (A) (A) (A) (A) (A) (A) (A) (A) (A) (A)
                 (A) (A) (A) (A) (A) (A) (A) (A) (A) (A) (A) (A)
                 (A) (A) (A) (A) (A) (A) (A) (A) (A) (A) (A) (A)
                 (A) (A) (A) (A) (A) (A) (A) (A) (A) (A) (A) (A)
                 (A) (A) (A) (A) (A) (A) (A) (A) (A) (A) (A) (A)
                 (A) (A) (A) (A) (A) (A) (A) (A) (A) (A) (A) (A)
                 (A) (A) (A) (A) (A) (A) (A) (A) (A) (A) (A) (A)
                 (A) (A) (A) (A) (A) (A) (A) (A) (A) (A) (A) (A)
                 (A) (A) (A) (A) (A) (A) (A) (A) (A) (A) (A) (A)
                 (A) (A) (A) (A) (A) (A) (A) (A) (A) (A) (A) (A)
                 (A) (A) (A) (A) (A) (A) (A) (A) (A) (A) (A) (A)
                 (A) (A) (A) (A) (A) (A) (A) (A) (A) (A) (A) (A)
                 (A) (A) (A) (A) (A) (A) (A) (A) (A) (A) (A) (A)
 The electronic state is 1-A.
 Alpha  occ. eigenvalues --  -90.14116 -90.14114 -25.30656 -25.30618 -25.30581
 Alpha  occ. eigenvalues --  -25.30577 -25.30426 -25.30395 -19.64116 -19.63949
 Alpha  occ. eigenvalues --  -19.63929 -19.63840 -14.86094 -14.85841 -14.76686
 Alpha  occ. eigenvalues --  -10.82728 -10.82365 -10.65923 -10.60903 -10.60797
 Alpha  occ. eigenvalues --  -10.60404 -10.59792 -10.54751 -10.53544 -10.52812
 Alpha  occ. eigenvalues --  -10.52652 -10.51721  -8.48244  -8.48201  -6.40463
 Alpha  occ. eigenvalues --   -6.40452  -6.40436  -6.40404  -6.40400  -6.40340
 Alpha  occ. eigenvalues --   -1.51362  -1.51233  -1.41325  -1.41214  -1.41148
 Alpha  occ. eigenvalues --   -1.40988  -1.29432  -1.27660  -1.22028  -1.16481
 Alpha  occ. eigenvalues --   -1.16185  -1.08817  -1.05521  -0.93524  -0.91338
 Alpha  occ. eigenvalues --   -0.89638  -0.89030  -0.86690  -0.85784  -0.81694
 Alpha  occ. eigenvalues --   -0.81348  -0.76941  -0.76436  -0.74315  -0.73768
 Alpha  occ. eigenvalues --   -0.73068  -0.72908  -0.72849  -0.71834  -0.71798
 Alpha  occ. eigenvalues --   -0.68976  -0.66779  -0.65365  -0.64690  -0.62427
 Alpha  occ. eigenvalues --   -0.60824  -0.60686  -0.60435  -0.60371  -0.59919
 Alpha  occ. eigenvalues --   -0.58284  -0.58167  -0.57804  -0.56808  -0.56755
 Alpha  occ. eigenvalues --   -0.56676  -0.56277  -0.56030  -0.55782  -0.55591
 Alpha  occ. eigenvalues --   -0.55508  -0.55187  -0.54179  -0.54048  -0.53924
 Alpha  occ. eigenvalues --   -0.53297  -0.52310  -0.50561  -0.49854  -0.49367
 Alpha  occ. eigenvalues --   -0.48150  -0.47177  -0.46588  -0.45605  -0.45138
 Alpha  occ. eigenvalues --   -0.44164  -0.43593  -0.42259  -0.42169  -0.42078
 Alpha  occ. eigenvalues --   -0.41214  -0.40295  -0.39701  -0.39379  -0.39054
 Alpha  occ. eigenvalues --   -0.38545  -0.37719  -0.36950  -0.35638  -0.34356
 Alpha virt. eigenvalues --   -0.00224  -0.00034   0.01303   0.01655   0.01961
 Alpha virt. eigenvalues --    0.02655   0.02813   0.02968   0.02991   0.03353
 Alpha virt. eigenvalues --    0.03862   0.04164   0.04470   0.04737   0.04828
 Alpha virt. eigenvalues --    0.05276   0.05409   0.06011   0.06106   0.06243
 Alpha virt. eigenvalues --    0.06595   0.06858   0.07267   0.07365   0.07972
 Alpha virt. eigenvalues --    0.08119   0.08203   0.08619   0.08732   0.09106
 Alpha virt. eigenvalues --    0.09331   0.09767   0.10016   0.10125   0.10428
 Alpha virt. eigenvalues --    0.10778   0.10867   0.11394   0.11505   0.11986
 Alpha virt. eigenvalues --    0.12276   0.13016   0.13296   0.13576   0.13701
 Alpha virt. eigenvalues --    0.13823   0.14434   0.14607   0.14789   0.15153
 Alpha virt. eigenvalues --    0.15490   0.15982   0.16458   0.16786   0.16944
 Alpha virt. eigenvalues --    0.17424   0.17850   0.17926   0.18361   0.18914
 Alpha virt. eigenvalues --    0.19069   0.19113   0.19667   0.20215   0.20452
 Alpha virt. eigenvalues --    0.20803   0.21094   0.21473   0.21714   0.21899
 Alpha virt. eigenvalues --    0.22667   0.22751   0.22831   0.23191   0.23261
 Alpha virt. eigenvalues --    0.23424   0.23852   0.23865   0.23958   0.24239
 Alpha virt. eigenvalues --    0.24317   0.24908   0.25157   0.25263   0.25565
 Alpha virt. eigenvalues --    0.25800   0.25986   0.26284   0.26434   0.26890
 Alpha virt. eigenvalues --    0.27024   0.27340   0.27534   0.27931   0.28048
 Alpha virt. eigenvalues --    0.28201   0.28339   0.28754   0.29035   0.29365
 Alpha virt. eigenvalues --    0.29582   0.29911   0.30079   0.30337   0.30517
 Alpha virt. eigenvalues --    0.30746   0.30957   0.31218   0.31324   0.31935
 Alpha virt. eigenvalues --    0.32373   0.32462   0.32889   0.33375   0.33436
 Alpha virt. eigenvalues --    0.33699   0.33766   0.34361   0.34932   0.34959
 Alpha virt. eigenvalues --    0.35273   0.35359   0.35669   0.36601   0.36714
 Alpha virt. eigenvalues --    0.37096   0.37632   0.38025   0.38121   0.38448
 Alpha virt. eigenvalues --    0.38690   0.39312   0.39345   0.39721   0.40539
 Alpha virt. eigenvalues --    0.40629   0.41587   0.41649   0.42241   0.42843
 Alpha virt. eigenvalues --    0.43049   0.43297   0.43513   0.44146   0.44480
 Alpha virt. eigenvalues --    0.45378   0.45727   0.45952   0.46360   0.46814
 Alpha virt. eigenvalues --    0.47624   0.48056   0.48488   0.49010   0.49476
 Alpha virt. eigenvalues --    0.49987   0.50428   0.50920   0.51395   0.51962
 Alpha virt. eigenvalues --    0.52448   0.52998   0.54023   0.54712   0.55077
 Alpha virt. eigenvalues --    0.55451   0.56200   0.56563   0.57405   0.57826
 Alpha virt. eigenvalues --    0.58613   0.59015   0.59832   0.60356   0.60840
 Alpha virt. eigenvalues --    0.61849   0.62176   0.63318   0.63777   0.64483
 Alpha virt. eigenvalues --    0.65148   0.65568   0.66026   0.66417   0.67076
 Alpha virt. eigenvalues --    0.67706   0.68193   0.68999   0.69892   0.70815
 Alpha virt. eigenvalues --    0.70975   0.71405   0.71704   0.72337   0.73131
 Alpha virt. eigenvalues --    0.73545   0.73874   0.74375   0.74861   0.75360
 Alpha virt. eigenvalues --    0.75690   0.76375   0.76484   0.78189   0.78384
 Alpha virt. eigenvalues --    0.79808   0.81032   0.81446   0.82777   0.83479
 Alpha virt. eigenvalues --    0.83789   0.84693   0.85267   0.85453   0.85700
 Alpha virt. eigenvalues --    0.85848   0.86636   0.87456   0.88305   0.89995
 Alpha virt. eigenvalues --    0.90737   0.91941   0.93098   0.93261   0.93604
 Alpha virt. eigenvalues --    0.95049   0.96397   0.98203   1.00420   1.01886
 Alpha virt. eigenvalues --    1.03716   1.03886   1.04070   1.04855   1.05820
 Alpha virt. eigenvalues --    1.06634   1.07362   1.07623   1.08363   1.09335
 Alpha virt. eigenvalues --    1.09710   1.10509   1.11424   1.11900   1.12400
 Alpha virt. eigenvalues --    1.13269   1.14130   1.15555   1.16705   1.17798
 Alpha virt. eigenvalues --    1.18982   1.20074   1.20763   1.22053   1.22228
 Alpha virt. eigenvalues --    1.23398   1.23547   1.24328   1.24536   1.25242
 Alpha virt. eigenvalues --    1.26428   1.26852   1.27344   1.27680   1.29245
 Alpha virt. eigenvalues --    1.29349   1.30338   1.30951   1.31210   1.31792
 Alpha virt. eigenvalues --    1.32428   1.34833   1.34964   1.36391   1.36948
 Alpha virt. eigenvalues --    1.40032   1.42611   1.43229   1.43730   1.44883
 Alpha virt. eigenvalues --    1.45939   1.47014   1.47869   1.48605   1.49477
 Alpha virt. eigenvalues --    1.49934   1.50392   1.51193   1.52222   1.53151
 Alpha virt. eigenvalues --    1.53691   1.54430   1.54741   1.55049   1.55425
 Alpha virt. eigenvalues --    1.56182   1.56895   1.57789   1.58695   1.58987
 Alpha virt. eigenvalues --    1.59508   1.60641   1.61178   1.61975   1.62332
 Alpha virt. eigenvalues --    1.62917   1.64167   1.65156   1.67289   1.67864
 Alpha virt. eigenvalues --    1.68728   1.69570   1.69904   1.71106   1.72540
 Alpha virt. eigenvalues --    1.73242   1.73714   1.74205   1.75814   1.76433
 Alpha virt. eigenvalues --    1.76914   1.79304   1.80123   1.82193   1.83277
 Alpha virt. eigenvalues --    1.84291   1.84874   1.85612   1.86494   1.87892
 Alpha virt. eigenvalues --    1.88054   1.88570   1.89242   1.90186   1.90716
 Alpha virt. eigenvalues --    1.93012   1.93335   1.93858   1.96384   1.97656
 Alpha virt. eigenvalues --    1.97990   1.98444   1.98552   1.99790   2.01423
 Alpha virt. eigenvalues --    2.02506   2.05736   2.05908   2.06258   2.08834
 Alpha virt. eigenvalues --    2.09418   2.10507   2.14901   2.19500   2.22579
 Alpha virt. eigenvalues --    2.22853   2.23365   2.26801   2.27934   2.28666
 Alpha virt. eigenvalues --    2.29697   2.33428   2.35339   2.42739   2.47037
 Alpha virt. eigenvalues --    2.49185   2.52009   2.53992   2.55484   2.57194
 Alpha virt. eigenvalues --    2.57413   2.58924   2.59840   2.60732   2.61801
 Alpha virt. eigenvalues --    2.62424   2.62471   2.63847   2.64392   2.65395
 Alpha virt. eigenvalues --    2.67050   2.67223   2.68564   2.68969   2.69542
 Alpha virt. eigenvalues --    2.72063   2.75055   2.77130   2.83115   2.83833
 Alpha virt. eigenvalues --    2.84547   2.85661   2.87565   2.88300   2.88885
 Alpha virt. eigenvalues --    2.88990   2.89517   2.91380   2.92265   2.93027
 Alpha virt. eigenvalues --    2.93727   2.94378   2.98601   2.98870   3.00957
 Alpha virt. eigenvalues --    3.02635   3.03358   3.04299   3.04840   3.05030
 Alpha virt. eigenvalues --    3.06991   3.08080   3.10021   3.11304   3.12710
 Alpha virt. eigenvalues --    3.14746   3.16744   3.18300   3.18785   3.19856
 Alpha virt. eigenvalues --    3.21213   3.21894   3.23577   3.23841   3.25230
 Alpha virt. eigenvalues --    3.26188   3.28550   3.31240   3.31971   3.35618
 Alpha virt. eigenvalues --    3.37508   3.45822   3.47742   3.51682   3.54826
 Alpha virt. eigenvalues --    3.55793   3.58066   3.58606   3.61764   3.66579
 Alpha virt. eigenvalues --    3.67913   3.69113   3.69474   3.77505   3.77713
 Alpha virt. eigenvalues --    3.81015   3.81452   3.81599   3.82000   3.82061
 Alpha virt. eigenvalues --    3.82297   3.82719   3.84822   3.85000   3.85214
 Alpha virt. eigenvalues --    3.85741   3.88455   3.88668   3.92137   3.93745
 Alpha virt. eigenvalues --    3.94037   3.95308   3.95541   3.96130   3.96250
 Alpha virt. eigenvalues --    3.98146   4.07384   4.07634   4.13089   4.20185
 Alpha virt. eigenvalues --    4.22448   4.22702   4.29439   4.29694   4.29935
 Alpha virt. eigenvalues --    4.30121   4.37696   4.46994   4.47520   4.69368
 Alpha virt. eigenvalues --    4.85348   4.90651   4.99701   5.00385   5.00689
 Alpha virt. eigenvalues --    5.00923   5.14093   5.14648   5.16486   5.17343
 Alpha virt. eigenvalues --    5.19553   5.20161   5.21036   5.22103   5.27694
 Alpha virt. eigenvalues --    5.29394   5.32272   5.44959   5.46163   6.41425
 Alpha virt. eigenvalues --    6.43547   6.44099   6.45866   6.48266   6.49502
 Alpha virt. eigenvalues --    6.51167   6.51699   6.51933   6.52470   6.54165
 Alpha virt. eigenvalues --    6.54730   6.56595   6.57951   6.89759   6.91163
 Alpha virt. eigenvalues --    6.91400   6.91823   8.33191   8.38801  17.55787
 Alpha virt. eigenvalues --   17.58050  17.61815  17.66488  17.71484  17.73714
 Alpha virt. eigenvalues --   23.53859  23.57731  23.57791  23.58384  23.65625
 Alpha virt. eigenvalues --   23.69688  23.74961  23.78324  23.80634  23.84748
 Alpha virt. eigenvalues --   23.92699  24.21553  35.51619  35.53962  35.67168
 Alpha virt. eigenvalues --   49.96856  49.97836  50.01933  50.03614  66.87105
 Alpha virt. eigenvalues --   66.87799  66.87852  66.88735  66.92489  66.93006
 Alpha virt. eigenvalues --  189.59173 189.65602
          Condensed to atoms (all electrons):
              1          2          3          4          5          6
     1  C    6.468515  -0.453740  -0.015140   0.033298   0.415079  -0.004990
     2  C   -0.453740   6.289740  -0.239333   0.152041  -0.033728   0.390898
     3  C   -0.015140  -0.239333   6.055449   0.394774  -0.005435   0.020377
     4  N    0.033298   0.152041   0.394774   6.757456  -0.067911   0.015144
     5  H    0.415079  -0.033728  -0.005435  -0.067911   0.345724  -0.000796
     6  H   -0.004990   0.390898   0.020377   0.015144  -0.000796   0.345953
     7  H    0.003858  -0.008852   0.400182  -0.046254  -0.000027   0.000033
     8  N    0.066436   0.223922   0.348914  -0.322763   0.021163  -0.072774
     9  C   -0.255304  -0.287216  -0.589898  -0.353593  -0.020865  -0.000050
    10  H   -0.035479   0.003364   0.062608  -0.080086   0.000023   0.000012
    11  H    0.005595   0.010535  -0.022927  -0.057452  -0.000744  -0.000012
    12  C    0.290139   0.081846   0.143419   0.026110   0.021526  -0.001990
    13  H    0.001726  -0.004076   0.008074  -0.009368  -0.001281   0.000013
    14  H    0.012158  -0.005568   0.000464   0.008505   0.000172  -0.000010
    15  C   -0.185664   0.138570   0.027274   0.139106   0.008087  -0.000660
    16  H    0.006417   0.000016   0.000089  -0.000593   0.000040   0.000000
    17  H   -0.003770  -0.000855   0.000302  -0.003866  -0.000020   0.000000
    18  C   -0.088526   0.013054  -0.070959  -0.064471   0.002183  -0.000056
    19  H    0.000745  -0.000098  -0.000553  -0.000398   0.000001   0.000000
    20  H   -0.000400  -0.000020   0.000466   0.000177  -0.000008   0.000000
    21  C   -0.001038   0.002680   0.006595   0.009326   0.000103  -0.000002
    22  H   -0.000050  -0.000004  -0.000095  -0.000072   0.000000   0.000000
    23  H   -0.000007   0.000001   0.000049  -0.000038   0.000000   0.000000
    24  C   -0.002307   0.000298  -0.001323  -0.001143   0.000009   0.000000
    25  H    0.000003   0.000000   0.000002   0.000002   0.000000   0.000000
    26  H   -0.000010  -0.000001  -0.000005  -0.000004   0.000000   0.000000
    27  H    0.000013   0.000003   0.000004   0.000001   0.000000   0.000000
    28  C   -0.033259  -0.067072  -0.097494  -0.053297  -0.000416  -0.005778
    29  H   -0.001178  -0.000802  -0.019410  -0.006841   0.000012  -0.000501
    30  H    0.008335  -0.001568  -0.023525  -0.007043   0.000010  -0.000475
    31  H    0.005267  -0.017571   0.084989   0.014939   0.000014  -0.000043
    32  N    0.000584   0.000075   0.017079   0.001139   0.000000   0.000000
    33  S   -0.001421   0.000893   0.004934  -0.003994  -0.000001   0.000000
    34  S    0.000340  -0.000449   0.006934  -0.001613  -0.000001  -0.000001
    35  O   -0.000796   0.000658  -0.000794   0.003359   0.000002   0.000000
    36  O    0.000137  -0.000170  -0.002410  -0.000496   0.000000   0.000000
    37  O   -0.000009   0.000006  -0.000099   0.000005   0.000000   0.000000
    38  O    0.000010  -0.000003   0.000622  -0.000004   0.000000   0.000000
    39  C    0.000490  -0.000890  -0.035542   0.002685  -0.000007   0.000002
    40  C   -0.000151   0.000431  -0.011518   0.000914   0.000001   0.000002
    41  F   -0.001084   0.001096  -0.002303   0.000001   0.000000   0.000000
    42  F    0.000189  -0.000138   0.001573  -0.000017   0.000000   0.000000
    43  F    0.000203  -0.000161   0.009283  -0.000169   0.000000   0.000000
    44  F    0.000093  -0.000092  -0.000850   0.000040   0.000000   0.000000
    45  F    0.000022  -0.000024   0.006719  -0.000791   0.000000   0.000000
    46  F   -0.000012   0.000011   0.000046   0.000002   0.000000   0.000000
              7          8          9         10         11         12
     1  C    0.003858   0.066436  -0.255304  -0.035479   0.005595   0.290139
     2  C   -0.008852   0.223922  -0.287216   0.003364   0.010535   0.081846
     3  C    0.400182   0.348914  -0.589898   0.062608  -0.022927   0.143419
     4  N   -0.046254  -0.322763  -0.353593  -0.080086  -0.057452   0.026110
     5  H   -0.000027   0.021163  -0.020865   0.000023  -0.000744   0.021526
     6  H    0.000033  -0.072774  -0.000050   0.000012  -0.000012  -0.001990
     7  H    0.329320  -0.038328   0.024866   0.001894  -0.000158  -0.004549
     8  N   -0.038328   6.659781  -0.299523   0.012170  -0.007400   0.102005
     9  C    0.024866  -0.299523  11.873759   0.315304   0.452661  -2.855884
    10  H    0.001894   0.012170   0.315304   0.390850  -0.028799  -0.004900
    11  H   -0.000158  -0.007400   0.452661  -0.028799   0.369575   0.011714
    12  C   -0.004549   0.102005  -2.855884  -0.004900   0.011714  11.700727
    13  H    0.000011   0.001378  -0.079638   0.003060  -0.005023   0.495753
    14  H    0.000068   0.001155   0.013371  -0.005100   0.002225   0.269117
    15  C   -0.004551   0.057026  -0.760162   0.043348  -0.047872  -3.031654
    16  H    0.000001   0.000098  -0.026152   0.000160   0.001350   0.020813
    17  H    0.000039  -0.000186   0.044412  -0.000906  -0.000629  -0.025085
    18  C    0.001080   0.004443   0.124253   0.008375  -0.000283  -0.383172
    19  H    0.000005   0.000031   0.009718   0.000102  -0.000081   0.008618
    20  H   -0.000001  -0.000048   0.007695  -0.000082   0.000096   0.023982
    21  C   -0.000105   0.001276  -0.245530   0.002755  -0.000291  -0.398363
[...]
    43  F    5.808597   4.808142   5.489787   3.900783   5.679674
    44  F    7.584901   7.159503   8.051266   6.475415   7.711322
    45  F    5.545617   5.467243   6.379975   5.003152   6.069531
    46  F    7.317995   7.409160   8.386186   7.004537   7.768905
                   16         17         18         19         20
    16  H    0.000000
    17  H    1.759227   0.000000
    18  C    2.162946   2.150766   0.000000
    19  H    3.058425   2.480041   1.095879   0.000000
    20  H    2.525450   3.059090   1.096939   1.758100   0.000000
    21  C    2.777389   2.776449   1.526770   2.154237   2.156259
    22  H    2.562935   3.120164   2.152749   3.056996   2.498651
    23  H    3.070993   2.535806   2.152045   2.507407   3.058298
    24  C    4.207980   4.184787   2.537935   2.756341   2.773144
    25  H    4.888220   4.874296   3.492595   3.765164   3.774980
    26  H    4.757084   4.385433   2.802741   2.572442   3.138963
    27  H    4.441112   4.746467   2.796067   3.104813   2.582782
    28  C    7.644849   7.017948   7.914757   7.545411   8.127216
    29  H    8.311639   7.774507   8.780117   8.486229   8.979501
    30  H    8.093688   7.503565   8.138030   7.690506   8.256581
    31  H    7.706019   6.845995   7.885850   7.436249   8.232033
    32  N    6.644898   4.949549   5.963077   5.198081   6.831468
    33  S    5.245535   3.641559   4.462254   3.691076   5.275868
    34  S    7.133964   5.426843   6.867065   6.278028   7.809442
    35  O    4.270326   2.720338   4.078456   3.618311   4.896631
    36  O    5.145339   3.624103   3.845673   2.926526   4.669359
    37  O    8.484855   6.749922   8.090334   7.439728   9.050657
    38  O    6.354382   4.692440   6.414192   6.034147   7.416684
    39  C    6.101319   4.803490   5.201015   4.329309   5.719837
    40  C    7.679287   6.142294   7.679853   7.133070   8.500584
    41  F    5.505965   4.518907   4.518969   3.689038   4.824655
    42  F    7.186318   5.863691   6.005827   5.012961   6.489936
    43  F    6.647531   5.396006   6.116766   5.371853   6.617635
    44  F    8.569212   7.041862   8.347133   7.675021   9.098829
    45  F    6.798304   5.418600   6.984663   6.528989   7.720755
    46  F    8.431866   6.941038   8.664356   8.211989   9.518430
                   21         22         23         24         25
    21  C    0.000000
    22  H    1.095613   0.000000
    23  H    1.095722   1.754388   0.000000
    24  C    1.526030   2.158290   2.157072   0.000000
    25  H    2.179723   2.502616   2.506542   1.092206   0.000000
    26  H    2.172554   3.073001   2.515767   1.093324   1.765235
    27  H    2.171250   2.520931   3.071380   1.093282   1.765239
    28  C    9.297483   9.783240   9.296977  10.285664  11.263354
    29  H   10.150205  10.567433  10.141332  11.203335  12.168953
    30  H    9.572227  10.111834   9.649319  10.435846  11.452045
    31  H    9.188546   9.741291   9.070237  10.171741  11.109814
    32  N    6.561661   7.428634   5.958525   7.230460   7.859299
    33  S    5.241994   6.109807   4.805940   5.969379   6.720471
    34  S    7.353365   8.089609   6.615360   8.199873   8.733353
    35  O    4.966035   5.636941   4.560906   6.010435   6.777846
    36  O    4.403276   5.399771   3.994531   4.847320   5.561864
    37  O    8.455680   9.232929   7.654644   9.169248   9.618064
    38  O    6.755251   7.348477   5.937267   7.769157   8.223200
    39  C    6.293806   7.173534   6.123668   6.872182   7.768988
    40  C    8.432715   9.101848   7.830046   9.397695  10.052711
    41  F    5.793364   6.624950   5.852303   6.333710   7.325301
    42  F    6.983304   7.952244   6.806003   7.318810   8.175262
    43  F    7.277048   8.066573   7.077907   8.008262   8.908984
    44  F    9.184212   9.936978   8.645567  10.019791  10.723319
    45  F    7.890910   8.487728   7.408686   8.956393   9.690441
    46  F    9.332934   9.919740   8.661521  10.377895  10.969926
                   26         27         28         29         30
    26  H    0.000000
    27  H    1.764913   0.000000
    28  C   10.040397  10.486426   0.000000
    29  H   11.010219  11.398049   1.087572   0.000000
    30  H   10.129160  10.563874   1.087131   1.785072   0.000000
    31  H    9.860344  10.476646   1.086148   1.777442   1.778184
    32  N    6.627349   7.978183   6.262028   7.134724   6.603252
    33  S    5.438586   6.619907   5.778711   6.729961   6.073934
    34  S    7.722248   9.021709   6.564998   7.264637   7.109551
    35  O    5.731620   6.620010   5.229765   6.080444   5.720966
    36  O    4.175554   5.536706   6.974906   7.970682   7.153779
    37  O    8.604740  10.040403   7.639744   8.303916   8.127356
    38  O    7.464530   8.634611   6.946181   7.574352   7.624801
    39  C    6.268983   7.295574   4.720942   5.771067   4.734264
    40  C    8.972177  10.103472   5.244212   5.795049   5.876778
    41  F    5.808750   6.581227   4.665526   5.740294   4.552624
    42  F    6.556625   7.738078   5.596006   6.645371   5.433999
    43  F    7.485027   8.423493   3.621443   4.629047   3.725254
    44  F    9.484982  10.676950   5.152536   5.734752   5.597216
    45  F    8.626592   9.569827   4.157368   4.721332   4.889459
    46  F   10.016156  11.125291   5.931900   6.280830   6.679278
                   31         32         33         34         35
    31  H    0.000000
    32  N    5.437063   0.000000
    33  S    5.177387   1.601220   0.000000
    34  S    5.645509   1.594684   2.835251   0.000000
    35  O    4.739902   2.589553   1.454976   3.165164   0.000000
    36  O    6.468102   2.517232   1.448585   3.850801   2.501402
    37  O    6.645340   2.470500   3.993185   1.449043   4.565474
    38  O    6.134198   2.568698   3.197911   1.449781   2.990201
    39  C    4.206042   2.645136   1.853532   3.968578   2.615230
    40  C    4.236947   2.726622   3.645263   1.856246   3.614209
    41  F    4.450232   3.815216   2.608750   5.112125   2.979638
    42  F    5.035853   2.948927   2.637332   4.416712   3.763718
    43  F    2.965159   2.983725   2.619723   3.893451   2.932487
    44  F    4.081775   3.022182   4.066695   2.625527   4.363480
    45  F    3.248258   3.093657   3.404084   2.634143   2.955043
    46  F    4.935417   3.874118   4.842241   2.610514   4.637833
                   36         37         38         39         40
    36  O    0.000000
    37  O    4.778005   0.000000
    38  O    4.099323   2.504511   0.000000
    39  C    2.621437   4.965602   4.683188   0.000000
    40  C    4.987258   2.601611   2.628670   4.082359   0.000000
    41  F    2.990742   6.209672   5.600714   1.326993   5.192266
    42  F    2.978678   5.086248   5.381016   1.320465   4.671004
    43  F    3.760513   4.894826   4.675150   1.331914   3.393902
    44  F    5.347293   2.926921   3.765791   3.998618   1.325391
    45  F    4.843892   3.750917   2.980085   3.668807   1.327249
    46  F    6.147569   2.973984   2.993949   5.396758   1.325604
                   41         42         43         44         45
    41  F    0.000000
    42  F    2.152684   0.000000
    43  F    2.158417   2.166270   0.000000
    44  F    5.196533   4.283901   3.179592   0.000000
    45  F    4.536857   4.564994   2.834254   2.157205   0.000000
    46  F    6.468219   5.988783   4.652524   2.160070   2.160510
                   46
    46  F    0.000000
 Stoichiometry    C12H19F6N3O4S2
 Framework group  C1[X(C12H19F6N3O4S2)]
 Deg. of freedom   132
 Full point group                 C1      NOp   1
 Largest Abelian subgroup         C1      NOp   1
 Largest concise Abelian subgroup C1      NOp   1
                         Standard orientation:                         
 ---------------------------------------------------------------------
 Center     Atomic      Atomic             Coordinates (Angstroms)
 Number     Number       Type             X           Y           Z
 ---------------------------------------------------------------------
      1          6           0       -2.136547    3.956200   -0.615976
      2          6           0       -1.212153    4.688291    0.057006
      3          6           0       -0.288288    2.771958   -0.500951
      4          7           0       -1.533600    2.766619   -0.963253
      5          1           0       -3.155101    4.178034   -0.886635
      6          1           0       -1.266196    5.672925    0.489997
      7          1           0        0.421004    1.976799   -0.629441
      8          7           0       -0.060252    3.934099    0.105815
      9          6           0       -2.189761    1.623781   -1.617369
     10          1           0       -1.395724    0.983501   -1.997209
     11          1           0       -2.761458    2.012233   -2.460656
     12          6           0       -3.065054    0.862264   -0.633579
     13          1           0       -3.914082    1.483522   -0.332239
     14          1           0       -2.475368    0.655661    0.259506
     15          6           0       -3.553409   -0.453862   -1.232016
     16          1           0       -4.230753   -0.257008   -2.070950
     17          1           0       -2.694368   -0.997128   -1.638953
     18          6           0       -4.250905   -1.328520   -0.192175
     19          1           0       -3.550938   -1.525529    0.627693
     20          1           0       -5.096787   -0.781929    0.242563
     21          6           0       -4.743706   -2.654633   -0.766281
     22          1           0       -5.451909   -2.455792   -1.578241
     23          1           0       -3.899210   -3.188096   -1.216668
     24          6           0       -5.404057   -3.537610    0.288734
     25          1           0       -5.756930   -4.479254   -0.137529
     26          1           0       -4.703457   -3.777784    1.092994
     27          1           0       -6.263327   -3.032407    0.737836
     28          6           0        1.193309    4.340768    0.736848
     29          1           0        1.580599    5.221720    0.230151
     30          1           0        1.007600    4.559130    1.785506
     31          1           0        1.906246    3.525846    0.651179
     32          7           0        1.633178   -1.903957    0.585467
     33         16           0        0.135433   -1.339233    0.627354
     34         16           0        2.572009   -1.914126   -0.703528
     35          8           0       -0.265122   -0.524404   -0.509556
     36          8           0       -0.785014   -2.335817    1.135286
     37          8           0        3.704708   -2.778052   -0.438294
     38          8           0        1.873222   -2.020339   -1.969341
     39          6           0        0.302099   -0.116853    2.010680
     40          6           0        3.329721   -0.219717   -0.725847
     41          9           0       -0.879508    0.441209    2.241509
     42          9           0        0.720576   -0.701012    3.118499
     43          9           0        1.160678    0.839136    1.660082
     44          9           0        3.965908    0.009823    0.413995
     45          9           0        2.394057    0.707494   -0.888338
     46          9           0        4.193395   -0.143489   -1.728584
 ---------------------------------------------------------------------
 Rotational constants (GHZ):      0.1793634      0.1364761      0.0988273
 Standard basis: 6-311+G(d) (5D, 7F)
 There are   667 symmetry adapted basis functions of A   symmetry.
 Integral buffers will be    131072 words long.
 Raffenetti 2 integral format.
 Two-electron integral symmetry is turned on.
   667 basis functions,  1095 primitive gaussians,   694 cartesian basis functions
   115 alpha electrons      115 beta electrons
       nuclear repulsion energy      3502.5732068352 Hartrees.
 NAtoms=   46 NActive=   46 NUniq=   46 SFac= 7.50D-01 NAtFMM=   80 NAOKFM=F Big=F
 ------------------------------------------------------------------------------
 Polarizable Continuum Model (PCM)
 =================================
 Model                : C-PCM.
 Atomic radii         : UFF (Universal Force Field).
 Polarization charges : Total charges.
 Charge compensation  : None.
 Solution method      : Matrix inversion.
 Cavity type          : Scaled VdW (van der Waals Surface) (Alpha=1.100).
 Cavity algorithm     : GePol (No added spheres)
                        Default sphere list used, NSphG=   46.
                        Lebedev-Laikov grids with approx.  5.0 points / Ang**2.
                        Smoothing algorithm: Karplus/York (Gamma=1.0000).
                        Polarization charges: spherical gaussians, with
                                              point-specific exponents (IZeta= 3).
                        Self-potential: point-specific (ISelfS= 7).
                        Self-field    : sphere-specific E.n sum rule (ISelfD= 2).
 1st derivatives      : Analytical E(r).r(x)/FMM algorithm (CHGder, D1EAlg=3).
                        Cavity 1st derivative terms included.
 Solvent              : Water, Eps=  78.355300 Eps(inf)=   1.777849
 ------------------------------------------------------------------------------
 One-electron integrals computed using PRISM.
 PrsmSu:  requested number of processors reduced to:   8 ShMem   1 Linda.
 NBasis=   667 RedAO= T  NBF=   667
 NBsUse=   667 1.00D-06 NBFU=   667
 Initial guess read from the read-write file.
 B after Tr=     0.000000    0.000000    0.000000
         Rot=    1.000000    0.000000    0.000000    0.000000 Ang=   0.00 deg.
 Initial guess orbital symmetries:
       Occupied  (A) (A) (A) (A) (A) (A) (A) (A) (A) (A) (A) (A)
                 (A) (A) (A) (A) (A) (A) (A) (A) (A) (A) (A) (A)
                 (A) (A) (A) (A) (A) (A) (A) (A) (A) (A) (A) (A)
                 (A) (A) (A) (A) (A) (A) (A) (A) (A) (A) (A) (A)
                 (A) (A) (A) (A) (A) (A) (A) (A) (A) (A) (A) (A)
                 (A) (A) (A) (A) (A) (A) (A) (A) (A) (A) (A) (A)
                 (A) (A) (A) (A) (A) (A) (A) (A) (A) (A) (A) (A)
                 (A) (A) (A) (A) (A) (A) (A) (A) (A) (A) (A) (A)
                 (A) (A) (A) (A) (A) (A) (A) (A) (A) (A) (A) (A)
                 (A) (A) (A) (A) (A) (A) (A)
       Virtual   (A) (A) (A) (A) (A) (A) (A) (A) (A) (A) (A) (A)
                 (A) (A) (A) (A) (A) (A) (A) (A) (A) (A) (A) (A)
                 (A) (A) (A) (A) (A) (A) (A) (A) (A) (A) (A) (A)
                 (A) (A) (A) (A) (A) (A) (A) (A) (A) (A) (A) (A)
                 (A) (A) (A) (A) (A) (A) (A) (A) (A) (A) (A) (A)
                 (A) (A) (A) (A) (A) (A) (A) (A) (A) (A) (A) (A)
                 (A) (A) (A) (A) (A) (A) (A) (A) (A) (A) (A) (A)
                 (A) (A) (A) (A) (A) (A) (A) (A) (A) (A) (A) (A)
                 (A) (A) (A) (A) (A) (A) (A) (A) (A) (A) (A) (A)
                 (A) (A) (A) (A) (A) (A) (A) (A) (A) (A) (A) (A)
                 (A) (A) (A) (A) (A) (A) (A) (A) (A) (A) (A) (A)
                 (A) (A) (A) (A) (A) (A) (A) (A) (A) (A) (A) (A)
                 (A) (A) (A) (A) (A) (A) (A) (A) (A) (A) (A) (A)
                 (A) (A) (A) (A) (A) (A) (A) (A) (A) (A) (A) (A)
                 (A) (A) (A) (A) (A) (A) (A) (A) (A) (A) (A) (A)
                 (A) (A) (A) (A) (A) (A) (A) (A) (A) (A) (A) (A)
                 (A) (A) (A) (A) (A) (A) (A) (A) (A) (A) (A) (A)
                 (A) (A) (A) (A) (A) (A) (A) (A) (A) (A) (A) (A)
                 (A) (A) (A) (A) (A) (A) (A) (A) (A) (A) (A) (A)
                 (A) (A) (A) (A) (A) (A) (A) (A) (A) (A) (A) (A)
                 (A) (A) (A) (A) (A) (A) (A) (A) (A) (A) (A) (A)
                 (A) (A) (A) (A) (A) (A) (A) (A) (A) (A) (A) (A)
                 (A) (A) (A) (A) (A) (A) (A) (A) (A) (A) (A) (A)
                 (A) (A) (A) (A) (A) (A) (A) (A) (A) (A) (A) (A)
                 (A) (A) (A) (A) (A) (A) (A) (A) (A) (A) (A) (A)
                 (A) (A) (A) (A) (A) (A) (A) (A) (A) (A) (A) (A)
                 (A) (A) (A) (A) (A) (A) (A) (A) (A) (A) (A) (A)
                 (A) (A) (A) (A) (A) (A) (A) (A) (A) (A) (A) (A)
                 (A) (A) (A) (A) (A) (A) (A) (A) (A) (A) (A) (A)
                 (A) (A) (A) (A) (A) (A) (A) (A) (A) (A) (A) (A)
                 (A) (A) (A) (A) (A) (A) (A) (A) (A) (A) (A) (A)
                 (A) (A) (A) (A) (A) (A) (A) (A) (A) (A) (A) (A)
                 (A) (A) (A) (A) (A) (A) (A) (A) (A) (A) (A) (A)
                 (A) (A) (A) (A) (A) (A) (A) (A) (A) (A) (A) (A)
                 (A) (A) (A) (A) (A) (A) (A) (A) (A) (A) (A) (A)
                 (A) (A) (A) (A) (A) (A) (A) (A) (A) (A) (A) (A)
                 (A) (A) (A) (A) (A) (A) (A) (A) (A) (A) (A) (A)
                 (A) (A) (A) (A) (A) (A) (A) (A) (A) (A) (A) (A)
                 (A) (A) (A) (A) (A) (A) (A) (A) (A) (A) (A) (A)
                 (A) (A) (A) (A) (A) (A) (A) (A) (A) (A) (A) (A)
                 (A) (A) (A) (A) (A) (A) (A) (A) (A) (A) (A) (A)
                 (A) (A) (A) (A) (A) (A) (A) (A) (A) (A) (A) (A)
                 (A) (A) (A) (A) (A) (A) (A) (A) (A) (A) (A) (A)
                 (A) (A) (A) (A) (A) (A) (A) (A) (A) (A) (A) (A)
                 (A) (A) (A) (A) (A) (A) (A) (A) (A) (A) (A) (A)
                 (A) (A) (A) (A) (A) (A) (A) (A) (A) (A) (A) (A)
 Harris functional with IExCor= 1009 diagonalized for initial guess.
 ExpMin= 4.05D-02 ExpMax= 9.34D+04 ExpMxC= 3.17D+03 IAcc=2 IRadAn=         0 AccDes= 0.00D+00
 HarFok:  IExCor= 1009 AccDes= 0.00D+00 IRadAn=         0 IDoV= 1
 ScaDFX=  1.000000  1.000000  1.000000  1.000000
 FoFCou: FMM=F IPFlag=           0 FMFlag=      100000 FMFlg1=           0
         NFxFlg=           0 DoJE=T BraDBF=F KetDBF=T FulRan=T
         Omega=  0.000000  0.000000  1.000000  0.000000  0.000000 ICntrl=     500 IOpCl=  0
         NMat0=    1 NMatS0=    1 NMatT0=    0 NMatD0=    1 NMtDS0=    0 NMtDT0=    0
         I1Cent=           4 NGrid=           0.
 Petite list used in FoFCou.
 Requested convergence on RMS density matrix=1.00D-08 within 128 cycles.
 Requested convergence on MAX density matrix=1.00D-06.
 Requested convergence on             energy=1.00D-06.
 No special actions if energy rises.
 CoulSu:  requested number of processors reduced to:  14 ShMem   1 Linda.
 CoulSu:  requested number of processors reduced to:  12 ShMem   1 Linda.
 CoulSu:  requested number of processors reduced to:  14 ShMem   1 Linda.
 CoulSu:  requested number of processors reduced to:  12 ShMem   1 Linda.
 CoulSu:  requested number of processors reduced to:  14 ShMem   1 Linda.
 CoulSu:  requested number of processors reduced to:  12 ShMem   1 Linda.
 CoulSu:  requested number of processors reduced to:  14 ShMem   1 Linda.
 CoulSu:  requested number of processors reduced to:  12 ShMem   1 Linda.
 CoulSu:  requested number of processors reduced to:  14 ShMem   1 Linda.
 CoulSu:  requested number of processors reduced to:  12 ShMem   1 Linda.
 CoulSu:  requested number of processors reduced to:  14 ShMem   1 Linda.
 CoulSu:  requested number of processors reduced to:  12 ShMem   1 Linda.
 CoulSu:  requested number of processors reduced to:  14 ShMem   1 Linda.
 CoulSu:  requested number of processors reduced to:  12 ShMem   1 Linda.
 CoulSu:  requested number of processors reduced to:  14 ShMem   1 Linda.
 CoulSu:  requested number of processors reduced to:  12 ShMem   1 Linda.
 CoulSu:  requested number of processors reduced to:  14 ShMem   1 Linda.
 CoulSu:  requested number of processors reduced to:  12 ShMem   1 Linda.
 CoulSu:  requested number of processors reduced to:  14 ShMem   1 Linda.
 CoulSu:  requested number of processors reduced to:  12 ShMem   1 Linda.
 CoulSu:  requested number of processors reduced to:  14 ShMem   1 Linda.
 CoulSu:  requested number of processors reduced to:  12 ShMem   1 Linda.
 CoulSu:  requested number of processors reduced to:  14 ShMem   1 Linda.
 CoulSu:  requested number of processors reduced to:  12 ShMem   1 Linda.
 CoulSu:  requested number of processors reduced to:  14 ShMem   1 Linda.
 CoulSu:  requested number of processors reduced to:  12 ShMem   1 Linda.
