 Entering Gaussian System, Link 0=g09
 Input=bmim-cl-4.com
 Output=bmim-cl-4.log
 Initial command:
 /gscratch/pfaendtner/codes/G09/g09/l1.exe /gscratch/pfaendtner/wesley/gaussian/Gau-10548.inp -scrdir=/gscratch/pfaendtner/wesley/gaussian/
 Entering Link 1 = /gscratch/pfaendtner/codes/G09/g09/l1.exe PID=     10549.
  
 Copyright (c) 1988,1990,1992,1993,1995,1998,2003,2009, Gaussian, Inc.
                  All Rights Reserved.
  
 This is part of the Gaussian(R) 09 program.  It is based on
 the Gaussian(R) 03 system (copyright 2003, Gaussian, Inc.),
 the Gaussian(R) 98 system (copyright 1998, Gaussian, Inc.),
 the Gaussian(R) 94 system (copyright 1995, Gaussian, Inc.),
 the Gaussian 92(TM) system (copyright 1992, Gaussian, Inc.),
 the Gaussian 90(TM) system (copyright 1990, Gaussian, Inc.),
 the Gaussian 88(TM) system (copyright 1988, Gaussian, Inc.),
 the Gaussian 86(TM) system (copyright 1986, Carnegie Mellon
 University), and the Gaussian 82(TM) system (copyright 1983,
 Carnegie Mellon University). Gaussian is a federally registered
 trademark of Gaussian, Inc.
  
 This software contains proprietary and confidential information,
 including trade secrets, belonging to Gaussian, Inc.
  
 This software is provided under written license and may be
 used, copied, transmitted, or stored only in accord with that
 written license.
  
 The following legend is applicable only to US Government
 contracts under FAR:
  
                    RESTRICTED RIGHTS LEGEND
  
 Use, reproduction and disclosure by the US Government is
 subject to restrictions as set forth in subparagraphs (a)
 and (c) of the Commercial Computer Software - Restricted
 Rights clause in FAR 52.227-19.
  
 Gaussian, Inc.
 340 Quinnipiac St., Bldg. 40, Wallingford CT 06492
  
  
 ---------------------------------------------------------------
 Warning -- This program may not be used in any manner that
 competes with the business of Gaussian, Inc. or will provide
 assistance to any competitor of Gaussian, Inc.  The licensee
 of this program is prohibited from giving any competitor of
 Gaussian, Inc. access to this program.  By using this program,
 the user acknowledges that Gaussian, Inc. is engaged in the
 business of creating and licensing software in the field of
 computational chemistry and represents and warrants to the
 licensee that it is not a competitor of Gaussian, Inc. and that
 it will not use this program in any manner prohibited above.
 ---------------------------------------------------------------
  

 Cite this work as:
 Gaussian 09, Revision A.02,
 M. J. Frisch, G. W. Trucks, H. B. Schlegel, G. E. Scuseria, 
 M. A. Robb, J. R. Cheeseman, G. Scalmani, V. Barone, B. Mennucci, 
 G. A. Petersson, H. Nakatsuji, M. Caricato, X. Li, H. P. Hratchian, 
 A. F. Izmaylov, J. Bloino, G. Zheng, J. L. Sonnenberg, M. Hada, 
 M. Ehara, K. Toyota, R. Fukuda, J. Hasegawa, M. Ishida, T. Nakajima, 
 Y. Honda, O. Kitao, H. Nakai, T. Vreven, J. A. Montgomery, Jr., 
 J. E. Peralta, F. Ogliaro, M. Bearpark, J. J. Heyd, E. Brothers, 
 K. N. Kudin, V. N. Staroverov, R. Kobayashi, J. Normand, 
 K. Raghavachari, A. Rendell, J. C. Burant, S. S. Iyengar, J. Tomasi, 
 M. Cossi, N. Rega, J. M. Millam, M. Klene, J. E. Knox, J. B. Cross, 
 V. Bakken, C. Adamo, J. Jaramillo, R. Gomperts, R. E. Stratmann, 
 O. Yazyev, A. J. Austin, R. Cammi, C. Pomelli, J. W. Ochterski, 
 R. L. Martin, K. Morokuma, V. G. Zakrzewski, G. A. Voth, 
 P. Salvador, J. J. Dannenberg, S. Dapprich, A. D. Daniels, 
 O. Farkas, J. B. Foresman, J. V. Ortiz, J. Cioslowski, 
 and D. J. Fox, Gaussian, Inc., Wallingford CT, 2009.
 
 ******************************************
 Gaussian 09:  EM64L-G09RevA.02 11-Jun-2009
                 8-Mar-2017 
 ******************************************
 %chk=bmim-cl-4.chk
 %nprocshared=8
 Will use up to    8 processors via shared memory.
 --------------------------------------
 # opt M062X/6-311+G* geom=connectivity
 --------------------------------------
 1/14=-1,18=20,19=15,26=3,38=1,57=2/1,3;
 2/9=110,12=2,17=6,18=5,40=1/2;
 3/5=4,6=6,7=11,11=2,16=1,25=1,30=1,71=1,74=-55/1,2,3;
 4//1;
 5/5=2,38=5/2;
 6/7=2,8=2,9=2,10=2,28=1/1;
 7//1,2,3,16;
 1/14=-1,18=20,19=15/3(2);
 2/9=110/2;
 99//99;
 2/9=110/2;
 3/5=4,6=6,7=11,11=2,16=1,25=1,30=1,71=1,74=-55/1,2,3;
 4/5=5,16=3/1;
 5/5=2,38=5/2;
 7//1,2,3,16;
 1/14=-1,18=20,19=15/3(-5);
 2/9=110/2;
 6/7=2,8=2,9=2,10=2,19=2,28=1/1;
 99/9=1/99;
 -------------------
 Title Card Required
 -------------------
 Symbolic Z-matrix:
 Charge =  0 Multiplicity = 1
 C                    -1.14717   0.852     0.00436 
 C                     0.50471   2.42076   0.23179 
 C                    -1.42155   2.10739  -0.74419 
 H                     1.40344   2.89005   0.57379 
 H                    -1.96807   2.23691  -1.65493 
 H                    -1.82031   0.13626   0.42802 
 C                     0.93263   0.14073   1.14279 
 H                     1.99162   0.29382   1.14139 
 H                     0.5264    0.46653   2.07753 
 C                     0.63011  -1.35632   0.94549 
 H                    -0.42888  -1.5094    0.9469 
 H                     1.03634  -1.68211   0.01076 
 C                     1.26708  -2.16413   2.09149 
 H                     2.32607  -2.01104   2.09008 
 H                     0.86085  -1.83833   3.02623 
 C                     0.96456  -3.66118   1.89419 
 H                     1.37079  -3.98698   0.95945 
 H                     1.40713  -4.22245   2.69043 
 H                    -0.09443  -3.81426   1.89559 
 C                    -0.99284   4.4231    0.36521 
 H                    -1.67075   4.83413  -0.35339 
 H                    -1.46324   4.39844   1.32595 
 H                    -0.11341   5.03063   0.41416 
 N                     0.32461   0.91183   0.04889 
 N                    -0.62345   3.05762  -0.03469 
 Cl                   -3.00668   1.54626  -0.61293 
 

 GradGradGradGradGradGradGradGradGradGradGradGradGradGradGradGradGradGrad
 Berny optimization.
 Initialization pass.
                           ----------------------------
                           !    Initial Parameters    !
                           ! (Angstroms and Degrees)  !
 --------------------------                            --------------------------
 ! Name  Definition              Value          Derivative Info.                !
 --------------------------------------------------------------------------------
 ! R1    R(1,3)                  1.4872         estimate D2E/DX2                !
 ! R2    R(1,6)                  1.07           estimate D2E/DX2                !
 ! R3    R(1,24)                 1.4737         estimate D2E/DX2                !
 ! R4    R(1,26)                 2.0787         estimate D2E/DX2                !
 ! R5    R(2,4)                  1.07           estimate D2E/DX2                !
 ! R6    R(2,24)                 1.5306         estimate D2E/DX2                !
 ! R7    R(2,25)                 1.3226         estimate D2E/DX2                !
 ! R8    R(3,5)                  1.07           estimate D2E/DX2                !
 ! R9    R(3,25)                 1.4294         estimate D2E/DX2                !
 ! R10   R(3,26)                 1.6866         estimate D2E/DX2                !
 ! R11   R(5,26)                 1.6253         estimate D2E/DX2                !
 ! R12   R(6,26)                 2.1164         estimate D2E/DX2                !
 ! R13   R(7,8)                  1.07           estimate D2E/DX2                !
 ! R14   R(7,9)                  1.07           estimate D2E/DX2                !
 ! R15   R(7,10)                 1.54           estimate D2E/DX2                !
 ! R16   R(7,24)                 1.47           estimate D2E/DX2                !
 ! R17   R(10,11)                1.07           estimate D2E/DX2                !
 ! R18   R(10,12)                1.07           estimate D2E/DX2                !
 ! R19   R(10,13)                1.54           estimate D2E/DX2                !
 ! R20   R(13,14)                1.07           estimate D2E/DX2                !
 ! R21   R(13,15)                1.07           estimate D2E/DX2                !
 ! R22   R(13,16)                1.54           estimate D2E/DX2                !
 ! R23   R(16,17)                1.07           estimate D2E/DX2                !
 ! R24   R(16,18)                1.07           estimate D2E/DX2                !
 ! R25   R(16,19)                1.07           estimate D2E/DX2                !
 ! R26   R(20,21)                1.07           estimate D2E/DX2                !
 ! R27   R(20,22)                1.07           estimate D2E/DX2                !
 ! R28   R(20,23)                1.07           estimate D2E/DX2                !
 ! R29   R(20,25)                1.47           estimate D2E/DX2                !
 ! A1    A(3,1,6)              130.3829         estimate D2E/DX2                !
 ! A2    A(3,1,24)              99.5093         estimate D2E/DX2                !
 ! A3    A(6,1,24)             130.0531         estimate D2E/DX2                !
 ! A4    A(6,1,26)              77.1858         estimate D2E/DX2                !
 ! A5    A(24,1,26)            152.7278         estimate D2E/DX2                !
 ! A6    A(4,2,24)             124.7087         estimate D2E/DX2                !
 ! A7    A(4,2,25)             124.7254         estimate D2E/DX2                !
 ! A8    A(24,2,25)            110.5025         estimate D2E/DX2                !
 ! A9    A(1,3,5)              128.6707         estimate D2E/DX2                !
 ! A10   A(1,3,25)             102.0233         estimate D2E/DX2                !
 ! A11   A(5,3,25)             128.8426         estimate D2E/DX2                !
 ! A12   A(25,3,26)            135.0129         estimate D2E/DX2                !
 ! A13   A(8,7,9)              109.4712         estimate D2E/DX2                !
 ! A14   A(8,7,10)             109.4712         estimate D2E/DX2                !
 ! A15   A(8,7,24)             109.4712         estimate D2E/DX2                !
 ! A16   A(9,7,10)             109.4712         estimate D2E/DX2                !
 ! A17   A(9,7,24)             109.4712         estimate D2E/DX2                !
 ! A18   A(10,7,24)            109.4712         estimate D2E/DX2                !
 ! A19   A(7,10,11)            109.4712         estimate D2E/DX2                !
 ! A20   A(7,10,12)            109.4712         estimate D2E/DX2                !
 ! A21   A(7,10,13)            109.4712         estimate D2E/DX2                !
 ! A22   A(11,10,12)           109.4712         estimate D2E/DX2                !
 ! A23   A(11,10,13)           109.4712         estimate D2E/DX2                !
 ! A24   A(12,10,13)           109.4712         estimate D2E/DX2                !
 ! A25   A(10,13,14)           109.4712         estimate D2E/DX2                !
 ! A26   A(10,13,15)           109.4712         estimate D2E/DX2                !
 ! A27   A(10,13,16)           109.4712         estimate D2E/DX2                !
 ! A28   A(14,13,15)           109.4712         estimate D2E/DX2                !
 ! A29   A(14,13,16)           109.4712         estimate D2E/DX2                !
 ! A30   A(15,13,16)           109.4712         estimate D2E/DX2                !
 ! A31   A(13,16,17)           109.4712         estimate D2E/DX2                !
 ! A32   A(13,16,18)           109.4712         estimate D2E/DX2                !
 ! A33   A(13,16,19)           109.4712         estimate D2E/DX2                !
 ! A34   A(17,16,18)           109.4712         estimate D2E/DX2                !
 ! A35   A(17,16,19)           109.4712         estimate D2E/DX2                !
 ! A36   A(18,16,19)           109.4712         estimate D2E/DX2                !
 ! A37   A(21,20,22)           109.4712         estimate D2E/DX2                !
 ! A38   A(21,20,23)           109.4712         estimate D2E/DX2                !
 ! A39   A(21,20,25)           109.4712         estimate D2E/DX2                !
 ! A40   A(22,20,23)           109.4712         estimate D2E/DX2                !
 ! A41   A(22,20,25)           109.4712         estimate D2E/DX2                !
 ! A42   A(23,20,25)           109.4712         estimate D2E/DX2                !
 ! A43   A(1,24,2)              99.2736         estimate D2E/DX2                !
 ! A44   A(1,24,7)             114.4737         estimate D2E/DX2                !
 ! A45   A(2,24,7)             112.3046         estimate D2E/DX2                !
 ! A46   A(2,25,3)             104.8423         estimate D2E/DX2                !
 ! A47   A(2,25,20)            127.3583         estimate D2E/DX2                !
 ! A48   A(3,25,20)            127.7501         estimate D2E/DX2                !
 ! A49   A(1,26,5)              76.1521         estimate D2E/DX2                !
 ! D1    D(6,1,3,5)            -58.789          estimate D2E/DX2                !
 ! D2    D(6,1,3,25)           128.5631         estimate D2E/DX2                !
 ! D3    D(24,1,3,5)           123.7399         estimate D2E/DX2                !
 ! D4    D(24,1,3,25)          -48.908          estimate D2E/DX2                !
 ! D5    D(3,1,24,2)            37.0391         estimate D2E/DX2                !
 ! D6    D(3,1,24,7)           156.8304         estimate D2E/DX2                !
 ! D7    D(6,1,24,2)          -140.4443         estimate D2E/DX2                !
 ! D8    D(6,1,24,7)           -20.653          estimate D2E/DX2                !
 ! D9    D(26,1,24,2)           42.8117         estimate D2E/DX2                !
 ! D10   D(26,1,24,7)          162.603          estimate D2E/DX2                !
 ! D11   D(6,1,26,5)          -159.5438         estimate D2E/DX2                !
 ! D12   D(24,1,26,5)           17.9008         estimate D2E/DX2                !
 ! D13   D(4,2,24,1)           162.6875         estimate D2E/DX2                !
 ! D14   D(4,2,24,7)            41.3088         estimate D2E/DX2                !
 ! D15   D(25,2,24,1)          -14.5281         estimate D2E/DX2                !
 ! D16   D(25,2,24,7)         -135.9067         estimate D2E/DX2                !
 ! D17   D(4,2,25,3)           166.7252         estimate D2E/DX2                !
 ! D18   D(4,2,25,20)          -15.6862         estimate D2E/DX2                !
 ! D19   D(24,2,25,3)          -16.0598         estimate D2E/DX2                !
 ! D20   D(24,2,25,20)         161.5288         estimate D2E/DX2                !
 ! D21   D(1,3,25,2)            40.527          estimate D2E/DX2                !
 ! D22   D(1,3,25,20)         -137.0489         estimate D2E/DX2                !
 ! D23   D(5,3,25,2)          -132.1031         estimate D2E/DX2                !
 ! D24   D(5,3,25,20)           50.321          estimate D2E/DX2                !
 ! D25   D(26,3,25,2)          130.5861         estimate D2E/DX2                !
 ! D26   D(26,3,25,20)         -46.9898         estimate D2E/DX2                !
 ! D27   D(8,7,10,11)          180.0            estimate D2E/DX2                !
 ! D28   D(8,7,10,12)          -60.0            estimate D2E/DX2                !
 ! D29   D(8,7,10,13)           60.0            estimate D2E/DX2                !
 ! D30   D(9,7,10,11)           60.0            estimate D2E/DX2                !
 ! D31   D(9,7,10,12)          180.0            estimate D2E/DX2                !
 ! D32   D(9,7,10,13)          -60.0            estimate D2E/DX2                !
 ! D33   D(24,7,10,11)         -60.0            estimate D2E/DX2                !
 ! D34   D(24,7,10,12)          60.0            estimate D2E/DX2                !
 ! D35   D(24,7,10,13)         180.0            estimate D2E/DX2                !
 ! D36   D(8,7,24,1)          -176.108          estimate D2E/DX2                !
 ! D37   D(8,7,24,2)           -63.892          estimate D2E/DX2                !
 ! D38   D(9,7,24,1)           -56.108          estimate D2E/DX2                !
 ! D39   D(9,7,24,2)            56.108          estimate D2E/DX2                !
 ! D40   D(10,7,24,1)           63.892          estimate D2E/DX2                !
 ! D41   D(10,7,24,2)          176.108          estimate D2E/DX2                !
 ! D42   D(7,10,13,14)         -60.0            estimate D2E/DX2                !
 ! D43   D(7,10,13,15)          60.0            estimate D2E/DX2                !
 ! D44   D(7,10,13,16)         180.0            estimate D2E/DX2                !
 ! D45   D(11,10,13,14)        180.0            estimate D2E/DX2                !
 ! D46   D(11,10,13,15)        -60.0            estimate D2E/DX2                !
 ! D47   D(11,10,13,16)         60.0            estimate D2E/DX2                !
 ! D48   D(12,10,13,14)         60.0            estimate D2E/DX2                !
 ! D49   D(12,10,13,15)       -180.0            estimate D2E/DX2                !
 ! D50   D(12,10,13,16)        -60.0            estimate D2E/DX2                !
 ! D51   D(10,13,16,17)         60.0            estimate D2E/DX2                !
 ! D52   D(10,13,16,18)        180.0            estimate D2E/DX2                !
 ! D53   D(10,13,16,19)        -60.0            estimate D2E/DX2                !
 ! D54   D(14,13,16,17)        -60.0            estimate D2E/DX2                !
 ! D55   D(14,13,16,18)         60.0            estimate D2E/DX2                !
 ! D56   D(14,13,16,19)        180.0            estimate D2E/DX2                !
 ! D57   D(15,13,16,17)        180.0            estimate D2E/DX2                !
 ! D58   D(15,13,16,18)        -60.0            estimate D2E/DX2                !
 ! D59   D(15,13,16,19)         60.0            estimate D2E/DX2                !
 ! D60   D(21,20,25,2)         151.4742         estimate D2E/DX2                !
 ! D61   D(21,20,25,3)         -31.4742         estimate D2E/DX2                !
 ! D62   D(22,20,25,2)         -88.5258         estimate D2E/DX2                !
 ! D63   D(22,20,25,3)          88.5258         estimate D2E/DX2                !
 ! D64   D(23,20,25,2)          31.4742         estimate D2E/DX2                !
 ! D65   D(23,20,25,3)        -151.4742         estimate D2E/DX2                !
 --------------------------------------------------------------------------------
 Trust Radius=3.00D-01 FncErr=1.00D-07 GrdErr=1.00D-06
 Number of steps in this run= 153 maximum allowed number of steps= 156.
 GradGradGradGradGradGradGradGradGradGradGradGradGradGradGradGradGradGrad

                          Input orientation:                          
 ---------------------------------------------------------------------
 Center     Atomic      Atomic             Coordinates (Angstroms)
 Number     Number       Type             X           Y           Z
 ---------------------------------------------------------------------
      1          6           0       -1.147166    0.851999    0.004358
      2          6           0        0.504714    2.420757    0.231794
      3          6           0       -1.421553    2.107393   -0.744190
      4          1           0        1.403438    2.890050    0.573788
      5          1           0       -1.968073    2.236911   -1.654926
      6          1           0       -1.820315    0.136260    0.428020
      7          6           0        0.932630    0.140732    1.142794
      8          1           0        1.991622    0.293819    1.141387
      9          1           0        0.526401    0.466530    2.077531
     10          6           0        0.630111   -1.356316    0.945493
     11          1           0       -0.428880   -1.509403    0.946899
     12          1           0        1.036341   -1.682114    0.010756
     13          6           0        1.267080   -2.164129    2.091489
     14          1           0        2.326071   -2.011042    2.090083
     15          1           0        0.860850   -1.838332    3.026227
     16          6           0        0.964560   -3.661178    1.894188
     17          1           0        1.370790   -3.986975    0.959451
     18          1           0        1.407129   -4.222451    2.690433
     19          1           0       -0.094431   -3.814265    1.895595
     20          6           0       -0.992839    4.423095    0.365211
     21          1           0       -1.670749    4.834131   -0.353390
     22          1           0       -1.463237    4.398444    1.325950
     23          1           0       -0.113405    5.030631    0.414160
     24          7           0        0.324615    0.911827    0.048888
     25          7           0       -0.623453    3.057617   -0.034691
     26         17           0       -3.006679    1.546259   -0.612934
 ---------------------------------------------------------------------
                    Distance matrix (angstroms):
                    1          2          3          4          5
     1  C    0.000000
     2  C    2.289418   0.000000
     3  C    1.487154   2.182028   0.000000
     4  H    3.314133   1.070000   3.214062   0.000000
     5  H    2.311947   3.115797   1.070000   4.094001   0.000000
     6  H    1.070000   3.265454   2.327756   4.242309   2.961964
     7  C    2.475376   2.492297   3.601478   2.846783   4.542608
     8  H    3.384728   2.749930   4.300490   2.721864   5.222467
     9  H    2.692110   2.688163   3.801193   2.983938   4.825753
    10  C    2.986821   3.845955   4.365963   4.332184   5.140430
    11  H    2.642071   4.102332   4.114170   4.780354   4.813884
    12  H    3.345066   4.143070   4.579470   4.621303   5.211502
    13  C    4.391096   5.006081   5.789277   5.278895   6.623519
    14  H    4.960910   5.139204   6.248144   5.212591   7.107030
    15  H    4.516824   5.106420   5.915585   5.354106   6.820822
    16  C    5.329128   6.321783   6.777240   6.697361   7.482246
    17  H    5.537867   6.506812   6.916711   6.887908   7.531251
    18  H    6.284064   7.140830   7.737247   7.420772   8.485134
    19  H    5.143835   6.480949   6.617836   6.995614   7.261781
    20  C    3.592598   2.503962   2.603276   2.852346   3.132322
    21  H    4.032307   3.301432   2.765849   3.753630   2.920265
    22  H    3.797865   2.996875   3.088063   3.325481   3.716545
    23  H    4.324068   2.688266   3.405635   2.628380   3.940277
    24  N    1.473669   1.530608   2.259968   2.313600   3.148849
    25  N    2.267279   1.322636   1.429433   2.122878   2.259806
    26  Cl   2.078662   3.715938   1.686631   4.760590   1.625254
                    6          7          8          9         10
     6  H    0.000000
     7  C    2.844227   0.000000
     8  H    3.881311   1.070000   0.000000
     9  H    2.887393   1.070000   1.747303   0.000000
    10  C    2.915502   1.540000   2.148263   2.148263   0.000000
    11  H    2.216649   2.148263   3.024610   2.468846   1.070000
    12  H    3.411902   2.148263   2.468846   3.024610   1.070000
    13  C    4.194154   2.514809   2.732978   2.732978   1.540000
    14  H    4.956398   2.732978   2.514809   3.062243   2.148263
    15  H    4.223546   2.732978   3.062243   2.514809   2.148263
    16  C    4.932111   3.875582   4.154945   4.154945   2.514809
    17  H    5.240863   4.154945   4.329403   4.668704   2.732978
    18  H    5.876502   4.653783   4.810184   4.810184   3.444314
    19  H    4.554020   4.154945   4.668704   4.329403   2.732978
    20  C    4.366419   4.759275   5.153676   4.571055   6.030945
    21  H    4.764762   5.571727   6.021773   5.460109   6.730727
    22  H    4.370354   4.888951   5.368246   4.470289   6.135481
    23  H    5.183493   5.053336   5.234251   4.899712   6.451994
    24  N    2.312135   1.470000   2.086720   2.086720   2.457987
    25  N    3.190753   3.509428   3.982506   3.535163   4.692013
    26  Cl   2.116398   4.536105   5.443277   4.570237   4.907125
                   11         12         13         14         15
    11  H    0.000000
    12  H    1.747303   0.000000
    13  C    2.148263   2.148263   0.000000
    14  H    3.024610   2.468846   1.070000   0.000000
    15  H    2.468846   3.024610   1.070000   1.747303   0.000000
    16  C    2.732978   2.732978   1.540000   2.148263   2.148263
    17  H    3.062243   2.514809   2.148263   2.468846   3.024610
    18  H    3.710993   3.710993   2.148263   2.468846   2.468846
    19  H    2.514809   3.062243   2.148263   3.024610   2.468846
    20  C    5.987566   6.443352   7.174873   7.442343   7.051428
    21  H    6.593437   7.065577   7.973953   8.294669   7.896364
    22  H    6.009679   6.704536   7.148990   7.484937   6.869476
    23  H    6.569276   6.822433   7.515567   7.638385   7.413145
    24  N    2.690081   2.690081   3.810770   4.088455   4.088455
    25  N    4.675367   5.022153   5.946545   6.237440   5.961769
    26  Cl   4.291293   5.211275   6.272631   6.956933   6.297359
                   16         17         18         19         20
    16  C    0.000000
    17  H    1.070000   0.000000
    18  H    1.070000   1.747303   0.000000
    19  H    1.070000   1.747303   1.747303   0.000000
    20  C    8.457225   8.756092   9.268871   8.426347   0.000000
    21  H    9.174243   9.422655  10.037921   9.073999   1.070000
    22  H    8.436504   8.858967   9.188071   8.345461   1.070000
    23  H    8.882569   9.155184   9.649506   8.968121   1.070000
    24  N    4.972628   5.091352   5.874555   5.091352   3.763609
    25  N    7.168303   7.388613   8.034236   7.157418   1.470000
    26  Cl   7.012404   7.228507   7.979470   6.596145   3.645340
                   21         22         23         24         25
    21  H    0.000000
    22  H    1.747303   0.000000
    23  H    1.747303   1.747303   0.000000
    24  N    4.419024   4.121141   4.158105   0.000000
    25  N    2.086720   2.086720   2.086720   2.347389   0.000000
    26  Cl   3.558395   3.778418   4.644007   3.455146   2.880683
                   26
    26  Cl   0.000000
 Stoichiometry    C8H15ClN2
 Framework group  C1[X(C8H15ClN2)]
 Deg. of freedom    72
 Full point group                 C1      NOp   1
 Largest Abelian subgroup         C1      NOp   1
 Largest concise Abelian subgroup C1      NOp   1
                         Standard orientation:                         
 ---------------------------------------------------------------------
 Center     Atomic      Atomic             Coordinates (Angstroms)
 Number     Number       Type             X           Y           Z
 ---------------------------------------------------------------------
      1          6           0        0.490453    0.615863   -0.117057
      2          6           0        1.051343   -1.591773   -0.347668
      3          6           0        1.907459    0.408074   -0.517739
      4          1           0        0.961873   -2.657831   -0.327237
      5          1           0        2.533719    1.040009   -1.112176
      6          1           0        0.035832    1.411265    0.435713
      7          6           0       -1.352387   -1.032674    0.000234
      8          1           0       -1.671542   -1.973222   -0.397771
      9          1           0       -1.194563   -1.126538    1.054359
     10          6           0       -2.434742    0.030448   -0.264115
     11          1           0       -2.115586    0.970997    0.133890
     12          1           0       -2.592565    0.124312   -1.318240
     13          6           0       -3.749294   -0.395212    0.415861
     14          1           0       -4.068449   -1.335760    0.017856
     15          1           0       -3.591470   -0.489076    1.469987
     16          6           0       -4.831649    0.667910    0.151513
     17          1           0       -4.989472    0.761774   -0.902613
     18          1           0       -5.745006    0.372160    0.623963
     19          1           0       -4.512493    1.608459    0.549517
     20          6           0        3.347490   -1.427366    0.637474
     21          1           0        4.208877   -0.884887    0.307883
     22          1           0        3.226600   -1.297792    1.692697
     23          1           0        3.475120   -2.466825    0.418073
     24          7           0       -0.097587   -0.626362   -0.648834
     25          7           0        2.154831   -0.922614   -0.058004
     26         17           0        2.062728    1.949069    0.150056
 ---------------------------------------------------------------------
 Rotational constants (GHZ):      1.7298842      0.4387441      0.3656597
 Standard basis: 6-311+G(d) (5D, 7F)
 There are   295 symmetry adapted basis functions of A   symmetry.
 Integral buffers will be    131072 words long.
 Raffenetti 2 integral format.
 Two-electron integral symmetry is turned on.
   295 basis functions,   488 primitive gaussians,   306 cartesian basis functions
    47 alpha electrons       47 beta electrons
       nuclear repulsion energy       723.5014467734 Hartrees.
 NAtoms=   26 NActive=   26 NUniq=   26 SFac= 7.50D-01 NAtFMM=   80 NAOKFM=F Big=F
 One-electron integrals computed using PRISM.
 NBasis=   295 RedAO= T  NBF=   295
 NBsUse=   295 1.00D-06 NBFU=   295
 Harris functional with IExCor= 1009 diagonalized for initial guess.
 ExpMin= 4.38D-02 ExpMax= 1.06D+05 ExpMxC= 3.62D+03 IAcc=2 IRadAn=         0 AccDes= 0.00D+00
 HarFok:  IExCor= 1009 AccDes= 0.00D+00 IRadAn=         0 IDoV= 1
 ScaDFX=  1.000000  1.000000  1.000000  1.000000
 FoFCou: FMM=F IPFlag=           0 FMFlag=      100000 FMFlg1=           0
         NFxFlg=           0 DoJE=T BraDBF=F KetDBF=T FulRan=T
         Omega=  0.000000  0.000000  1.000000  0.000000  0.000000 ICntrl=     500 IOpCl=  0
         NMat0=    1 NMatS0=    1 NMatT0=    0 NMatD0=    1 NMtDS0=    0 NMtDT0=    0
         I1Cent=           4 NGrid=           0.
 Petite list used in FoFCou.
 Initial guess orbital symmetries:
       Occupied  (A) (A) (A) (A) (A) (A) (A) (A) (A) (A) (A) (A)
                 (A) (A) (A) (A) (A) (A) (A) (A) (A) (A) (A) (A)
                 (A) (A) (A) (A) (A) (A) (A) (A) (A) (A) (A) (A)
                 (A) (A) (A) (A) (A) (A) (A) (A) (A) (A) (A)
       Virtual   (A) (A) (A) (A) (A) (A) (A) (A) (A) (A) (A) (A)
                 (A) (A) (A) (A) (A) (A) (A) (A) (A) (A) (A) (A)
                 (A) (A) (A) (A) (A) (A) (A) (A) (A) (A) (A) (A)
                 (A) (A) (A) (A) (A) (A) (A) (A) (A) (A) (A) (A)
                 (A) (A) (A) (A) (A) (A) (A) (A) (A) (A) (A) (A)
                 (A) (A) (A) (A) (A) (A) (A) (A) (A) (A) (A) (A)
                 (A) (A) (A) (A) (A) (A) (A) (A) (A) (A) (A) (A)
                 (A) (A) (A) (A) (A) (A) (A) (A) (A) (A) (A) (A)
                 (A) (A) (A) (A) (A) (A) (A) (A) (A) (A) (A) (A)
                 (A) (A) (A) (A) (A) (A) (A) (A) (A) (A) (A) (A)
                 (A) (A) (A) (A) (A) (A) (A) (A) (A) (A) (A) (A)
                 (A) (A) (A) (A) (A) (A) (A) (A) (A) (A) (A) (A)
                 (A) (A) (A) (A) (A) (A) (A) (A) (A) (A) (A) (A)
                 (A) (A) (A) (A) (A) (A) (A) (A) (A) (A) (A) (A)
                 (A) (A) (A) (A) (A) (A) (A) (A) (A) (A) (A) (A)
                 (A) (A) (A) (A) (A) (A) (A) (A) (A) (A) (A) (A)
                 (A) (A) (A) (A) (A) (A) (A) (A) (A) (A) (A) (A)
                 (A) (A) (A) (A) (A) (A) (A) (A) (A) (A) (A) (A)
                 (A) (A) (A) (A) (A) (A) (A) (A) (A) (A) (A) (A)
                 (A) (A) (A) (A) (A) (A) (A) (A) (A) (A) (A) (A)
                 (A) (A) (A) (A) (A) (A) (A) (A)
 The electronic state of the initial guess is 1-A.
 Requested convergence on RMS density matrix=1.00D-08 within 128 cycles.
 Requested convergence on MAX density matrix=1.00D-06.
 Requested convergence on             energy=1.00D-06.
 No special actions if energy rises.
 SCF Done:  E(RM062X) =  -883.150037850     A.U. after   17 cycles
             Convg  =    0.8598D-08             -V/T =  2.0019

 **********************************************************************

            Population analysis using the SCF density.

 **********************************************************************

 Orbital symmetries:
       Occupied  (A) (A) (A) (A) (A) (A) (A) (A) (A) (A) (A) (A)
                 (A) (A) (A) (A) (A) (A) (A) (A) (A) (A) (A) (A)
                 (A) (A) (A) (A) (A) (A) (A) (A) (A) (A) (A) (A)
                 (A) (A) (A) (A) (A) (A) (A) (A) (A) (A) (A)
       Virtual   (A) (A) (A) (A) (A) (A) (A) (A) (A) (A) (A) (A)
                 (A) (A) (A) (A) (A) (A) (A) (A) (A) (A) (A) (A)
                 (A) (A) (A) (A) (A) (A) (A) (A) (A) (A) (A) (A)
                 (A) (A) (A) (A) (A) (A) (A) (A) (A) (A) (A) (A)
                 (A) (A) (A) (A) (A) (A) (A) (A) (A) (A) (A) (A)
                 (A) (A) (A) (A) (A) (A) (A) (A) (A) (A) (A) (A)
                 (A) (A) (A) (A) (A) (A) (A) (A) (A) (A) (A) (A)
                 (A) (A) (A) (A) (A) (A) (A) (A) (A) (A) (A) (A)
                 (A) (A) (A) (A) (A) (A) (A) (A) (A) (A) (A) (A)
                 (A) (A) (A) (A) (A) (A) (A) (A) (A) (A) (A) (A)
                 (A) (A) (A) (A) (A) (A) (A) (A) (A) (A) (A) (A)
                 (A) (A) (A) (A) (A) (A) (A) (A) (A) (A) (A) (A)
                 (A) (A) (A) (A) (A) (A) (A) (A) (A) (A) (A) (A)
                 (A) (A) (A) (A) (A) (A) (A) (A) (A) (A) (A) (A)
                 (A) (A) (A) (A) (A) (A) (A) (A) (A) (A) (A) (A)
                 (A) (A) (A) (A) (A) (A) (A) (A) (A) (A) (A) (A)
                 (A) (A) (A) (A) (A) (A) (A) (A) (A) (A) (A) (A)
                 (A) (A) (A) (A) (A) (A) (A) (A) (A) (A) (A) (A)
                 (A) (A) (A) (A) (A) (A) (A) (A) (A) (A) (A) (A)
                 (A) (A) (A) (A) (A) (A) (A) (A) (A) (A) (A) (A)
                 (A) (A) (A) (A) (A) (A) (A) (A)
 The electronic state is 1-A.
 Alpha  occ. eigenvalues -- -102.63470 -14.82662 -14.78855 -10.62767 -10.60479
 Alpha  occ. eigenvalues --  -10.59910 -10.56316 -10.52619 -10.52422 -10.52374
 Alpha  occ. eigenvalues --  -10.51412  -9.78372  -7.50825  -7.50172  -7.50088
 Alpha  occ. eigenvalues --   -1.13605  -1.01498  -1.01127  -0.89825  -0.85970
 Alpha  occ. eigenvalues --   -0.80621  -0.78774  -0.73435  -0.69189  -0.66759
 Alpha  occ. eigenvalues --   -0.65910  -0.61793  -0.59258  -0.56507  -0.56448
 Alpha  occ. eigenvalues --   -0.52545  -0.52274  -0.50921  -0.50357  -0.48942
 Alpha  occ. eigenvalues --   -0.47653  -0.45525  -0.44608  -0.42732  -0.40689
 Alpha  occ. eigenvalues --   -0.39988  -0.39718  -0.37901  -0.33210  -0.30603
 Alpha  occ. eigenvalues --   -0.29607  -0.17413
 Alpha virt. eigenvalues --   -0.01951   0.00408   0.01703   0.02407   0.03362
 Alpha virt. eigenvalues --    0.03686   0.03984   0.04155   0.05033   0.05225
 Alpha virt. eigenvalues --    0.05992   0.06812   0.07155   0.07865   0.08042
 Alpha virt. eigenvalues --    0.08274   0.08659   0.09658   0.10142   0.10992
 Alpha virt. eigenvalues --    0.11271   0.11889   0.12741   0.12895   0.13354
 Alpha virt. eigenvalues --    0.13965   0.14468   0.15372   0.16319   0.16763
 Alpha virt. eigenvalues --    0.17392   0.17735   0.18025   0.18648   0.19624
 Alpha virt. eigenvalues --    0.19995   0.20186   0.20675   0.20856   0.21452
 Alpha virt. eigenvalues --    0.22062   0.22827   0.23138   0.24137   0.24183
 Alpha virt. eigenvalues --    0.24889   0.25359   0.25866   0.25988   0.26366
 Alpha virt. eigenvalues --    0.26597   0.27476   0.28315   0.28730   0.28807
 Alpha virt. eigenvalues --    0.29345   0.29933   0.30573   0.31087   0.31937
 Alpha virt. eigenvalues --    0.32800   0.33044   0.33909   0.34648   0.35548
 Alpha virt. eigenvalues --    0.37325   0.38635   0.39020   0.40571   0.42178
 Alpha virt. eigenvalues --    0.43205   0.44705   0.45414   0.46578   0.47683
 Alpha virt. eigenvalues --    0.48723   0.50592   0.51383   0.51867   0.53800
 Alpha virt. eigenvalues --    0.54661   0.55132   0.56519   0.58130   0.59132
 Alpha virt. eigenvalues --    0.60907   0.62908   0.64466   0.64785   0.65606
 Alpha virt. eigenvalues --    0.66372   0.67554   0.67880   0.68109   0.69320
 Alpha virt. eigenvalues --    0.70187   0.71090   0.73205   0.73476   0.73958
 Alpha virt. eigenvalues --    0.74477   0.75019   0.75961   0.76358   0.77360
 Alpha virt. eigenvalues --    0.78721   0.79258   0.80474   0.81487   0.82514
 Alpha virt. eigenvalues --    0.83263   0.84852   0.87433   0.90278   0.92214
 Alpha virt. eigenvalues --    0.92975   0.95030   0.96754   0.98648   0.99015
 Alpha virt. eigenvalues --    1.01532   1.02370   1.04078   1.04515   1.05637
 Alpha virt. eigenvalues --    1.06020   1.07288   1.07417   1.08829   1.14167
 Alpha virt. eigenvalues --    1.17926   1.20838   1.22439   1.26157   1.27623
 Alpha virt. eigenvalues --    1.29457   1.33349   1.35365   1.40695   1.42817
 Alpha virt. eigenvalues --    1.48120   1.51483   1.52328   1.55602   1.57211
 Alpha virt. eigenvalues --    1.58539   1.59517   1.60316   1.61617   1.62472
 Alpha virt. eigenvalues --    1.63798   1.65334   1.66780   1.68349   1.69046
 Alpha virt. eigenvalues --    1.71595   1.75630   1.76118   1.79325   1.79595
 Alpha virt. eigenvalues --    1.80224   1.81852   1.82647   1.84786   1.85687
 Alpha virt. eigenvalues --    1.89900   1.91057   1.92363   1.94559   1.98148
 Alpha virt. eigenvalues --    2.00174   2.04830   2.17449   2.20991   2.23539
 Alpha virt. eigenvalues --    2.30236   2.32672   2.34595   2.38660   2.41469
 Alpha virt. eigenvalues --    2.45639   2.47254   2.48882   2.52058   2.55070
 Alpha virt. eigenvalues --    2.56117   2.56687   2.57545   2.58789   2.59836
 Alpha virt. eigenvalues --    2.62168   2.62988   2.64907   2.65971   2.67085
 Alpha virt. eigenvalues --    2.69290   2.71031   2.72942   2.76371   2.79406
 Alpha virt. eigenvalues --    2.87790   2.90390   2.97288   3.03597   3.04583
 Alpha virt. eigenvalues --    3.05902   3.07158   3.12987   3.16129   3.22097
 Alpha virt. eigenvalues --    3.22830   3.25497   3.28410   3.30113   3.33267
 Alpha virt. eigenvalues --    3.34625   3.41491   3.44042   3.44861   3.52146
 Alpha virt. eigenvalues --    3.54456   3.57397   3.65336   3.74368   3.88638
 Alpha virt. eigenvalues --    3.96521   4.04870   4.09485   4.27272   4.55664
 Alpha virt. eigenvalues --    4.81799   4.83313   4.95154  10.04252  23.56868
 Alpha virt. eigenvalues --   23.59186  23.67394  23.71712  23.76671  23.80663
 Alpha virt. eigenvalues --   23.81506  23.85861  26.08037  26.28929  26.76508
 Alpha virt. eigenvalues --   35.56943  35.59895 216.15900
          Condensed to atoms (all electrons):
              1          2          3          4          5          6
     1  C   13.411221  -1.004377  -4.931758   0.010789   0.356844   0.660723
     2  C   -1.004377   6.664848   0.218751   0.376322   0.004992  -0.031896
     3  C   -4.931758   0.218751  13.975691  -0.005698   0.307271  -0.254546
     4  H    0.010789   0.376322  -0.005698   0.394400  -0.000160  -0.000350
     5  H    0.356844   0.004992   0.307271  -0.000160   0.784372   0.001518
     6  H    0.660723  -0.031896  -0.254546  -0.000350   0.001518   0.495442
     7  C   -0.506734  -0.323536  -0.462266   0.029858  -0.024176   0.084026
     8  H    0.011037  -0.009830   0.002189   0.000930   0.000081  -0.000421
     9  H    0.070536  -0.027668   0.008883   0.000443   0.000340   0.004617
    10  C    0.617687  -0.311770  -0.465301  -0.004281   0.028775   0.039759
    11  H   -0.005348   0.012679  -0.003258   0.000007  -0.000142  -0.002901
    12  H    0.022925  -0.006300   0.004912   0.000033  -0.000113   0.001283
    13  C   -0.151824  -0.064624  -0.004039   0.001389   0.000384   0.006800
    14  H   -0.008374   0.001180  -0.001651  -0.000004   0.000000  -0.000076
    15  H    0.017117  -0.001121   0.003086   0.000008  -0.000002  -0.000017
    16  C   -0.015843  -0.026616  -0.015961  -0.000051   0.000038   0.003679
    17  H    0.005125  -0.000063   0.000559   0.000000   0.000000   0.000000
    18  H    0.000465   0.000128  -0.000062   0.000000   0.000000   0.000000
    19  H   -0.005453   0.000150   0.000064   0.000000   0.000000  -0.000144
    20  C    0.103813  -0.042187  -0.180733  -0.007040   0.001961   0.003391
    21  H    0.020242  -0.026342   0.037981  -0.000169   0.002879   0.000153
    22  H    0.008136   0.005342  -0.071757  -0.000060  -0.002846  -0.000087
    23  H   -0.019721   0.027922   0.025780   0.001924  -0.001194   0.000088
    24  N   -0.695489   0.304321   0.383965  -0.011831   0.040989  -0.118320
    25  N    0.207000   0.411801  -1.109447  -0.055955  -0.244029   0.028142
    26  Cl  -1.377917   0.136258  -0.339306   0.004505  -0.486360  -0.196683
              7          8          9         10         11         12
     1  C   -0.506734   0.011037   0.070536   0.617687  -0.005348   0.022925
     2  C   -0.323536  -0.009830  -0.027668  -0.311770   0.012679  -0.006300
     3  C   -0.462266   0.002189   0.008883  -0.465301  -0.003258   0.004912
     4  H    0.029858   0.000930   0.000443  -0.004281   0.000007   0.000033
     5  H   -0.024176   0.000081   0.000340   0.028775  -0.000142  -0.000113
     6  H    0.084026  -0.000421   0.004617   0.039759  -0.002901   0.001283
     7  C    7.436502   0.397019   0.316251  -0.728921  -0.014167  -0.086409
     8  H    0.397019   0.459680  -0.039238  -0.015709   0.004816  -0.004344
     9  H    0.316251  -0.039238   0.469213   0.032258  -0.007548   0.004439
    10  C   -0.728921  -0.015709   0.032258   7.382450   0.391534   0.496812
    11  H   -0.014167   0.004816  -0.007548   0.391534   0.447961  -0.029735
    12  H   -0.086409  -0.004344   0.004439   0.496812  -0.029735   0.415413
    13  C    0.458116  -0.009420  -0.044440  -0.734794  -0.047010  -0.091726
    14  H    0.007031   0.001318  -0.000974  -0.085345   0.006081  -0.006832
    15  H   -0.019433   0.000546   0.002874  -0.004231  -0.006008   0.006034
    16  C   -0.245585   0.006336   0.000127   0.229048   0.000497   0.003525
    17  H    0.003389   0.000102  -0.000003  -0.023041   0.000110   0.004162
    18  H    0.008483  -0.000032  -0.000009   0.067387  -0.000324  -0.000183
    19  H    0.005230  -0.000049  -0.000043  -0.067859   0.003290  -0.000653
    20  C    0.016561   0.000453  -0.000954  -0.012811  -0.000164   0.000197
    21  H   -0.002419  -0.000002   0.000042   0.000121  -0.000001   0.000000
    22  H    0.002880   0.000000  -0.000291  -0.001072   0.000003   0.000000
    23  H    0.006353  -0.000023   0.000054  -0.000473   0.000000   0.000000
    24  N    0.088257  -0.052721  -0.065891  -0.059688  -0.002424  -0.002733
    25  N    0.058361  -0.004411   0.018204  -0.052062  -0.000603   0.001779
    26  Cl  -0.058659   0.001067  -0.009989  -0.167162   0.001954   0.001453
             13         14         15         16         17         18
     1  C   -0.151824  -0.008374   0.017117  -0.015843   0.005125   0.000465
     2  C   -0.064624   0.001180  -0.001121  -0.026616  -0.000063   0.000128
     3  C   -0.004039  -0.001651   0.003086  -0.015961   0.000559  -0.000062
     4  H    0.001389  -0.000004   0.000008  -0.000051   0.000000   0.000000
     5  H    0.000384   0.000000  -0.000002   0.000038   0.000000   0.000000
     6  H    0.006800  -0.000076  -0.000017   0.003679   0.000000   0.000000
     7  C    0.458116   0.007031  -0.019433  -0.245585   0.003389   0.008483
     8  H   -0.009420   0.001318   0.000546   0.006336   0.000102  -0.000032
     9  H   -0.044440  -0.000974   0.002874   0.000127  -0.000003  -0.000009
    10  C   -0.734794  -0.085345  -0.004231   0.229048  -0.023041   0.067387
    11  H   -0.047010   0.006081  -0.006008   0.000497   0.000110  -0.000324
    12  H   -0.091726  -0.006832   0.006034   0.003525   0.004162  -0.000183
    13  C    6.464051   0.456466   0.373204  -0.210496  -0.006913  -0.089778
    14  H    0.456466   0.460413  -0.038061  -0.038534  -0.007123  -0.003952
    15  H    0.373204  -0.038061   0.465296  -0.049825   0.006720  -0.004021
    16  C   -0.210496  -0.038534  -0.049825   6.291330   0.363546   0.366737
    17  H   -0.006913  -0.007123   0.006720   0.363546   0.451221  -0.025542
    18  H   -0.089778  -0.003952  -0.004021   0.366737  -0.025542   0.443116
    19  H    0.031248   0.006190  -0.008375   0.382920  -0.032852  -0.025178
    20  C   -0.000791  -0.000057   0.000108  -0.000170   0.000003   0.000001
    21  H   -0.000049   0.000000   0.000000  -0.000001   0.000000   0.000000
    22  H    0.000092   0.000000   0.000000   0.000001   0.000000   0.000000
    23  H    0.000059   0.000000   0.000000   0.000001   0.000000   0.000000
    24  N    0.013433  -0.002586  -0.000746  -0.040212   0.000138   0.000314
    25  N   -0.004663  -0.000254   0.000343  -0.001079   0.000010   0.000003
    26  Cl  -0.014444  -0.000015   0.000540  -0.003285   0.000065   0.000010
             19         20         21         22         23         24
     1  C   -0.005453   0.103813   0.020242   0.008136  -0.019721  -0.695489
     2  C    0.000150  -0.042187  -0.026342   0.005342   0.027922   0.304321
     3  C    0.000064  -0.180733   0.037981  -0.071757   0.025780   0.383965
     4  H    0.000000  -0.007040  -0.000169  -0.000060   0.001924  -0.011831
     5  H    0.000000   0.001961   0.002879  -0.002846  -0.001194   0.040989
     6  H   -0.000144   0.003391   0.000153  -0.000087   0.000088  -0.118320
     7  C    0.005230   0.016561  -0.002419   0.002880   0.006353   0.088257
     8  H   -0.000049   0.000453  -0.000002   0.000000  -0.000023  -0.052721
     9  H   -0.000043  -0.000954   0.000042  -0.000291   0.000054  -0.065891
    10  C   -0.067859  -0.012811   0.000121  -0.001072  -0.000473  -0.059688
    11  H    0.003290  -0.000164  -0.000001   0.000003   0.000000  -0.002424
    12  H   -0.000653   0.000197   0.000000   0.000000   0.000000  -0.002733
    13  C    0.031248  -0.000791  -0.000049   0.000092   0.000059   0.013433
    14  H    0.006190  -0.000057   0.000000   0.000000   0.000000  -0.002586
    15  H   -0.008375   0.000108   0.000000   0.000000   0.000000  -0.000746
    16  C    0.382920  -0.000170  -0.000001   0.000001   0.000001  -0.040212
    17  H   -0.032852   0.000003   0.000000   0.000000   0.000000   0.000138
    18  H   -0.025178   0.000001   0.000000   0.000000   0.000000   0.000314
    19  H    0.451722  -0.000007   0.000000   0.000000   0.000000   0.000099
    20  C   -0.000007   5.699573   0.413185   0.427301   0.387337  -0.039875
    21  H    0.000000   0.413185   0.429308  -0.032908  -0.018284  -0.007092
    22  H    0.000000   0.427301  -0.032908   0.409693  -0.025655   0.004704
    23  H    0.000000   0.387337  -0.018284  -0.025655   0.439237  -0.000814
    24  N    0.000099  -0.039875  -0.007092   0.004704  -0.000814   7.173160
    25  N   -0.000028  -0.057996  -0.076411  -0.030799  -0.084058  -0.294377
    26  Cl  -0.000143  -0.014441  -0.007934   0.013972  -0.001312   0.044781
             25         26
     1  C    0.207000  -1.377917
     2  C    0.411801   0.136258
     3  C   -1.109447  -0.339306
     4  H   -0.055955   0.004505
     5  H   -0.244029  -0.486360
     6  H    0.028142  -0.196683
     7  C    0.058361  -0.058659
     8  H   -0.004411   0.001067
     9  H    0.018204  -0.009989
    10  C   -0.052062  -0.167162
    11  H   -0.000603   0.001954
    12  H    0.001779   0.001453
    13  C   -0.004663  -0.014444
    14  H   -0.000254  -0.000015
    15  H    0.000343   0.000540
    16  C   -0.001079  -0.003285
    17  H    0.000010   0.000065
    18  H    0.000003   0.000010
    19  H   -0.000028  -0.000143
    20  C   -0.057996  -0.014441
    21  H   -0.076411  -0.007934
    22  H   -0.030799   0.013972
    23  H   -0.084058  -0.001312
    24  N   -0.294377   0.044781
    25  N    7.348119   0.349248
    26  Cl   0.349248  18.743887
 Mulliken atomic charges:
              1
     1  C   -0.800823
     2  C   -0.288365
     3  C   -1.123349
     4  H    0.264988
     5  H    0.228577
     6  H    0.275817
     7  C   -0.446014
     8  H    0.250625
     9  H    0.268768
    10  C   -0.551312
    11  H    0.250699
    12  H    0.266059
    13  C   -0.330233
    14  H    0.255156
    15  H    0.255964
    16  C   -1.000127
    17  H    0.260387
    18  H    0.262436
    19  H    0.259874
    20  C   -0.696661
    21  H    0.267699
    22  H    0.293348
    23  H    0.262779
    24  N    0.340638
    25  N    0.593161
    26  Cl   0.379911
 Sum of Mulliken atomic charges =   0.00000
 Mulliken charges with hydrogens summed into heavy atoms:
              1
     1  C   -0.525006
     2  C   -0.023377
     3  C   -0.894772
     7  C    0.073379
    10  C   -0.034555
    13  C    0.180887
    16  C   -0.217430
    20  C    0.127166
    24  N    0.340638
    25  N    0.593161
    26  Cl   0.379911
 Sum of Mulliken charges with hydrogens summed into heavy atoms =   0.00000
 Electronic spatial extent (au):  <R**2>=           3054.3455
 Charge=              0.0000 electrons
 Dipole moment (field-independent basis, Debye):
    X=              0.7629    Y=             -4.3606    Z=              1.2569  Tot=              4.6018
 Quadrupole moment (field-independent basis, Debye-Ang):
   XX=            -67.2870   YY=            -74.7664   ZZ=            -80.4334
   XY=             -9.0027   XZ=              1.2615   YZ=             -1.4915
 Traceless Quadrupole moment (field-independent basis, Debye-Ang):
   XX=              6.8753   YY=             -0.6041   ZZ=             -6.2711
   XY=             -9.0027   XZ=              1.2615   YZ=             -1.4915
 Octapole moment (field-independent basis, Debye-Ang**2):
  XXX=             44.8336  YYY=            -20.0392  ZZZ=              7.1596  XYY=              4.7825
  XXY=            -30.1974  XXZ=              4.5243  XZZ=              0.9803  YZZ=              1.0314
  YYZ=              1.6570  XYZ=             -8.5938
 Hexadecapole moment (field-independent basis, Debye-Ang**3):
 XXXX=          -3142.5178 YYYY=           -734.4516 ZZZZ=           -199.3950 XXXY=            -52.0373
 XXXZ=             21.7510 YYYX=            -37.0292 YYYZ=              4.6911 ZZZX=             15.4158
 ZZZY=             -9.6182 XXYY=           -673.3957 XXZZ=           -565.9992 YYZZ=           -167.9065
 XXYZ=            -17.9189 YYXZ=              3.8819 ZZXY=             -0.3638
 N-N= 7.235014467734D+02 E-N=-3.523619947475D+03  KE= 8.814686809513D+02
 Calling FoFJK, ICntrl=      2127 FMM=F ISym2X=0 I1Cent= 0 IOpClX= 0 NMat=1 NMatS=1 NMatT=0.
 ***** Axes restored to original set *****
 -------------------------------------------------------------------
 Center     Atomic                   Forces (Hartrees/Bohr)
 Number     Number              X              Y              Z
 -------------------------------------------------------------------
      1        6           0.122995903    0.007995739   -0.044171765
      2        6           0.011088668   -0.088856920   -0.001809787
      3        6           0.009657011   -0.042686895    0.040988756
      4        1           0.006796296    0.000959786    0.000429076
      5        1           0.080489813    0.037549855   -0.072975005
      6        1           0.018329363   -0.010748136    0.000611099
      7        6          -0.005548731   -0.017275983   -0.021735925
      8        1           0.016341719    0.002932971    0.000275016
      9        1          -0.005952236    0.004782783    0.015680428
     10        6           0.020165794    0.015836115    0.026293786
     11        1          -0.014544757   -0.003640292   -0.002325946
     12        1           0.003277187   -0.004377644   -0.015413593
     13        6          -0.018993183   -0.013741559   -0.026309698
     14        1           0.016175547    0.003617263    0.002785240
     15        1          -0.003404141    0.005949220    0.015207799
     16        6           0.007948450    0.024581320    0.007919684
     17        1           0.004550072   -0.007444153   -0.012673956
     18        1           0.004617795   -0.011782098    0.009441931
     19        1          -0.014507751   -0.005149869   -0.000555970
     20        6           0.010069464   -0.018797221   -0.010373521
     21        1          -0.008368771    0.004292105   -0.010275955
     22        1          -0.006769594   -0.001267975    0.012159791
     23        1           0.011690743    0.007702646    0.000659260
     24        7          -0.020801785    0.093798613    0.050200631
     25        7          -0.011021008    0.010137278   -0.007946270
     26       17          -0.234281867    0.005633053    0.043914898
 -------------------------------------------------------------------
 Cartesian Forces:  Max     0.234281867 RMS     0.039058195

 GradGradGradGradGradGradGradGradGradGradGradGradGradGradGradGradGradGrad
 Berny optimization.
 Internal  Forces:  Max     0.084102287 RMS     0.016703546
 Search for a local minimum.
 Step number   1 out of a maximum of  153
 All quantities printed in internal units (Hartrees-Bohrs-Radians)
 Mixed Optimization -- RFO/linear search
 Second derivative matrix not updated -- first step.
     Eigenvalues ---    0.00237   0.00237   0.00237   0.00750   0.00766
     Eigenvalues ---    0.00766   0.00915   0.01180   0.01474   0.01663
     Eigenvalues ---    0.02983   0.03612   0.03840   0.03840   0.04502
     Eigenvalues ---    0.04896   0.04896   0.05496   0.05720   0.05720
     Eigenvalues ---    0.06864   0.07537   0.07537   0.07655   0.07655
     Eigenvalues ---    0.07744   0.08860   0.11233   0.11701   0.11701
     Eigenvalues ---    0.11956   0.12453   0.13786   0.15971   0.16000
     Eigenvalues ---    0.16000   0.16000   0.16000   0.16000   0.16000
     Eigenvalues ---    0.16914   0.19612   0.21948   0.21948   0.21985
     Eigenvalues ---    0.24950   0.25661   0.27837   0.28519   0.28519
     Eigenvalues ---    0.28519   0.29105   0.32408   0.34606   0.35740
     Eigenvalues ---    0.35740   0.36650   0.37230   0.37230   0.37230
     Eigenvalues ---    0.37230   0.37230   0.37230   0.37230   0.37230
     Eigenvalues ---    0.37230   0.37230   0.37230   0.37230   0.37230
     Eigenvalues ---    0.38498   0.567741000.000001000.000001000.00000
     Eigenvalues --- 1000.000001000.000001000.000001000.000001000.00000
     Eigenvalues --- 1000.000001000.000001000.000001000.000001000.00000
     Eigenvalues --- 1000.000001000.000001000.000001000.000001000.00000
     Eigenvalues --- 1000.000001000.000001000.000001000.000001000.00000
     Eigenvalues --- 1000.000001000.000001000.000001000.000001000.00000
     Eigenvalues --- 1000.000001000.000001000.000001000.000001000.00000
     Eigenvalues --- 1000.000001000.000001000.000001000.000001000.00000
     Eigenvalues --- 1000.000001000.000001000.000001000.000001000.00000
     Eigenvalues --- 1000.000001000.000001000.000001000.000001000.00000
     Eigenvalues --- 1000.000001000.000001000.000001000.000001000.00000
     Eigenvalues --- 1000.000001000.000001000.000001000.000001000.00000
     Eigenvalues --- 1000.000001000.000001000.000001000.000001000.00000
     Eigenvalues --- 1000.000001000.000001000.000001000.000001000.00000
     Eigenvalues --- 1000.000001000.000001000.00000
 RFO step:  Lambda=-1.28755972D-01 EMin= 2.36824079D-03
 Linear search not attempted -- first point.
 Maximum step size (   0.300) exceeded in Quadratic search.
    -- Step size scaled by   0.432
 Iteration  1 RMS(Cart)=  0.02828079 RMS(Int)=  0.00062344
 Iteration  2 RMS(Cart)=  0.00063138 RMS(Int)=  0.00042006
 Iteration  3 RMS(Cart)=  0.00000036 RMS(Int)=  0.00042006
 Variable       Old X    -DE/DX   Delta X   Delta X   Delta X     New X
                                 (Linear)    (Quad)   (Total)
    R1        2.81031  -0.04470   0.00000  -0.04226  -0.04311   2.76721
    R2        2.02201  -0.01362   0.00000  -0.01166  -0.01180   2.01020
    R3        2.78483  -0.01044   0.00000  -0.01345  -0.01307   2.77176
    R4        3.92810   0.08410   0.00000   0.13496   0.13447   4.06257
    R5        2.02201   0.00627   0.00000   0.00541   0.00541   2.02742
    R6        2.89243  -0.08283   0.00000  -0.08795  -0.08811   2.80432
    R7        2.49942   0.01990   0.00000   0.01363   0.01334   2.51276
    R8        2.02201   0.00996   0.00000   0.00922   0.00889   2.03090
    R9        2.70124   0.00151   0.00000   0.00587   0.00602   2.70726
   R10        3.18727   0.07046   0.00000   0.07107   0.07206   3.25933
   R11        3.07129   0.08275   0.00000   0.13051   0.13032   3.20161
   R12        3.99941   0.03310   0.00000   0.08062   0.08120   4.08062
   R13        2.02201   0.01659   0.00000   0.01432   0.01432   2.03632
   R14        2.02201   0.01741   0.00000   0.01503   0.01503   2.03703
   R15        2.91018  -0.00532   0.00000  -0.00556  -0.00556   2.90462
   R16        2.77790   0.00611   0.00000   0.00543   0.00543   2.78333
   R17        2.02201   0.01491   0.00000   0.01287   0.01287   2.03487
   R18        2.02201   0.01604   0.00000   0.01384   0.01384   2.03585
   R19        2.91018  -0.00255   0.00000  -0.00266  -0.00266   2.90752
   R20        2.02201   0.01652   0.00000   0.01426   0.01426   2.03626
   R21        2.02201   0.01639   0.00000   0.01414   0.01414   2.03615
   R22        2.91018  -0.00123   0.00000  -0.00129  -0.00129   2.90889
   R23        2.02201   0.01507   0.00000   0.01301   0.01301   2.03501
   R24        2.02201   0.01511   0.00000   0.01304   0.01304   2.03505
   R25        2.02201   0.01509   0.00000   0.01302   0.01302   2.03503
   R26        2.02201   0.01385   0.00000   0.01195   0.01195   2.03396
   R27        2.02201   0.01393   0.00000   0.01202   0.01202   2.03403
   R28        2.02201   0.01401   0.00000   0.01209   0.01209   2.03410
   R29        2.77790  -0.01128   0.00000  -0.01003  -0.01003   2.76787
    A1        2.27561  -0.01114   0.00000  -0.02096  -0.02195   2.25366
    A2        1.73676   0.01793   0.00000   0.02529   0.02582   1.76258
    A3        2.26985  -0.00653   0.00000  -0.00370  -0.00331   2.26654
    A4        1.34715  -0.01867   0.00000  -0.01727  -0.01708   1.33007
    A5        2.66560   0.02548   0.00000   0.02170   0.02088   2.68648
    A6        2.17658  -0.00131   0.00000  -0.00245  -0.00229   2.17429
    A7        2.17687   0.00295   0.00000   0.00407   0.00422   2.18109
    A8        1.92863  -0.00138   0.00000  -0.00057  -0.00113   1.92750
    A9        2.24573   0.02714   0.00000   0.04223   0.04075   2.28647
   A10        1.78064  -0.01887   0.00000  -0.02301  -0.02363   1.75701
   A11        2.24873  -0.01126   0.00000  -0.02801  -0.02826   2.22047
   A12        2.35642  -0.00604   0.00000  -0.01074  -0.01028   2.34613
   A13        1.91063   0.00034   0.00000  -0.00052  -0.00053   1.91011
   A14        1.91063  -0.00207   0.00000  -0.00330  -0.00330   1.90734
   A15        1.91063  -0.00193   0.00000  -0.00299  -0.00298   1.90765
   A16        1.91063  -0.00059   0.00000   0.00015   0.00014   1.91077
   A17        1.91063  -0.00072   0.00000   0.00021   0.00020   1.91083
   A18        1.91063   0.00498   0.00000   0.00646   0.00645   1.91709
   A19        1.91063  -0.00055   0.00000  -0.00009  -0.00010   1.91054
   A20        1.91063  -0.00203   0.00000  -0.00273  -0.00274   1.90789
   A21        1.91063   0.00496   0.00000   0.00686   0.00686   1.91749
   A22        1.91063  -0.00072   0.00000  -0.00317  -0.00317   1.90746
   A23        1.91063  -0.00154   0.00000  -0.00167  -0.00167   1.90896
   A24        1.91063  -0.00012   0.00000   0.00080   0.00080   1.91143
   A25        1.91063  -0.00159   0.00000  -0.00155  -0.00156   1.90907
   A26        1.91063  -0.00166   0.00000  -0.00170  -0.00171   1.90892
   A27        1.91063   0.00679   0.00000   0.00925   0.00924   1.91988
   A28        1.91063  -0.00059   0.00000  -0.00338  -0.00339   1.90724
   A29        1.91063  -0.00147   0.00000  -0.00129  -0.00130   1.90934
   A30        1.91063  -0.00147   0.00000  -0.00132  -0.00132   1.90931
   A31        1.91063   0.00279   0.00000   0.00410   0.00409   1.91472
   A32        1.91063   0.00538   0.00000   0.00820   0.00818   1.91882
   A33        1.91063   0.00271   0.00000   0.00398   0.00397   1.91460
   A34        1.91063  -0.00386   0.00000  -0.00563  -0.00565   1.90498
   A35        1.91063  -0.00319   0.00000  -0.00506  -0.00507   1.90556
   A36        1.91063  -0.00383   0.00000  -0.00559  -0.00561   1.90502
   A37        1.91063   0.00098   0.00000   0.00125   0.00125   1.91188
   A38        1.91063   0.00074   0.00000   0.00103   0.00103   1.91166
   A39        1.91063  -0.00197   0.00000  -0.00309  -0.00309   1.90754
   A40        1.91063   0.00086   0.00000   0.00157   0.00157   1.91220
   A41        1.91063  -0.00082   0.00000  -0.00119  -0.00120   1.90944
   A42        1.91063   0.00022   0.00000   0.00043   0.00043   1.91106
   A43        1.73265   0.00609   0.00000   0.00634   0.00635   1.73900
   A44        1.99794   0.00840   0.00000   0.01639   0.01634   2.01429
   A45        1.96009  -0.00500   0.00000   0.00297   0.00295   1.96303
   A46        1.82984   0.00336   0.00000   0.01300   0.01305   1.84289
   A47        2.22282  -0.00254   0.00000  -0.00735  -0.00740   2.21542
   A48        2.22966  -0.00076   0.00000  -0.00545  -0.00547   2.22419
   A49        1.32910  -0.04004   0.00000  -0.05626  -0.05471   1.27440
    D1       -1.02606  -0.00768   0.00000  -0.03130  -0.03269  -1.05875
    D2        2.24385   0.01772   0.00000   0.04157   0.04181   2.28566
    D3        2.15967  -0.01372   0.00000  -0.04630  -0.04837   2.11129
    D4       -0.85361   0.01168   0.00000   0.02658   0.02613  -0.82748
    D5        0.64645   0.00780   0.00000   0.00688   0.00698   0.65344
    D6        2.73721   0.00941   0.00000   0.02168   0.02212   2.75933
    D7       -2.45121   0.00196   0.00000  -0.00740  -0.00819  -2.45940
    D8       -0.36046   0.00357   0.00000   0.00740   0.00695  -0.35351
    D9        0.74721  -0.01089   0.00000  -0.04231  -0.04283   0.70438
   D10        2.83796  -0.00928   0.00000  -0.02751  -0.02769   2.81027
   D11       -2.78456   0.00820   0.00000   0.03336   0.03327  -2.75129
   D12        0.31243   0.01785   0.00000   0.06043   0.06034   0.37277
   D13        2.83943   0.00773   0.00000   0.01706   0.01715   2.85658
   D14        0.72098  -0.00342   0.00000  -0.00706  -0.00712   0.71386
   D15       -0.25356   0.00204   0.00000  -0.00616  -0.00583  -0.25939
   D16       -2.37202  -0.00910   0.00000  -0.03028  -0.03009  -2.40211
   D17        2.90990   0.00001   0.00000  -0.00225  -0.00212   2.90778
   D18       -0.27378   0.00139   0.00000   0.00255   0.00245  -0.27132
   D19       -0.28030   0.00556   0.00000   0.02075   0.02075  -0.25955
   D20        2.81921   0.00693   0.00000   0.02555   0.02532   2.84453
   D21        0.70733  -0.01288   0.00000  -0.03257  -0.03195   0.67538
   D22       -2.39195  -0.01420   0.00000  -0.03733  -0.03649  -2.42845
   D23       -2.30563   0.00860   0.00000   0.03320   0.03150  -2.27413
   D24        0.87827   0.00728   0.00000   0.02843   0.02696   0.90522
   D25        2.27916   0.00562   0.00000   0.01185   0.01139   2.29054
   D26       -0.82013   0.00430   0.00000   0.00709   0.00684  -0.81329
   D27        3.14159   0.00079   0.00000   0.00198   0.00198  -3.13961
   D28       -1.04720  -0.00168   0.00000  -0.00363  -0.00363  -1.05082
   D29        1.04720  -0.00003   0.00000  -0.00012  -0.00013   1.04707
   D30        1.04720   0.00201   0.00000   0.00455   0.00455   1.05175
   D31        3.14159  -0.00046   0.00000  -0.00106  -0.00105   3.14054
   D32       -1.04720   0.00119   0.00000   0.00245   0.00244  -1.04475
   D33       -1.04720   0.00021   0.00000   0.00025   0.00025  -1.04695
   D34        1.04720  -0.00226   0.00000  -0.00536  -0.00536   1.04184
   D35        3.14159  -0.00061   0.00000  -0.00185  -0.00186   3.13973
   D36       -3.07366  -0.00350   0.00000  -0.00627  -0.00642  -3.08009
   D37       -1.11513   0.00621   0.00000   0.01403   0.01417  -1.10095
   D38       -0.97927  -0.00470   0.00000  -0.00862  -0.00877  -0.98804
   D39        0.97927   0.00501   0.00000   0.01168   0.01183   0.99110
   D40        1.11513  -0.00283   0.00000  -0.00435  -0.00450   1.11063
   D41        3.07366   0.00688   0.00000   0.01595   0.01610   3.08976
   D42       -1.04720   0.00166   0.00000   0.00359   0.00359  -1.04361
   D43        1.04720  -0.00105   0.00000  -0.00255  -0.00255   1.04465
   D44        3.14159   0.00028   0.00000   0.00046   0.00046  -3.14114
   D45        3.14159   0.00023   0.00000   0.00052   0.00052  -3.14107
   D46       -1.04720  -0.00248   0.00000  -0.00561  -0.00561  -1.05281
   D47        1.04720  -0.00114   0.00000  -0.00261  -0.00261   1.04459
   D48        1.04720   0.00213   0.00000   0.00493   0.00494   1.05213
   D49        3.14159  -0.00058   0.00000  -0.00120  -0.00120   3.14039
   D50       -1.04720   0.00076   0.00000   0.00180   0.00181  -1.04539
   D51        1.04720  -0.00023   0.00000  -0.00052  -0.00052   1.04667
   D52        3.14159   0.00005   0.00000   0.00012   0.00012  -3.14147
   D53       -1.04720   0.00031   0.00000   0.00073   0.00074  -1.04646
   D54       -1.04720  -0.00153   0.00000  -0.00349  -0.00349  -1.05069
   D55        1.04720  -0.00126   0.00000  -0.00285  -0.00285   1.04435
   D56        3.14159  -0.00099   0.00000  -0.00224  -0.00223   3.13936
   D57        3.14159   0.00099   0.00000   0.00225   0.00225  -3.13935
   D58       -1.04720   0.00127   0.00000   0.00289   0.00289  -1.04430
   D59        1.04720   0.00153   0.00000   0.00350   0.00351   1.05070
   D60        2.64372  -0.00121   0.00000  -0.00429  -0.00413   2.63959
   D61       -0.54933   0.00055   0.00000   0.00197   0.00182  -0.54751
   D62       -1.54507  -0.00172   0.00000  -0.00538  -0.00522  -1.55029
   D63        1.54507   0.00004   0.00000   0.00088   0.00073   1.54580
   D64        0.54933  -0.00103   0.00000  -0.00393  -0.00377   0.54556
   D65       -2.64372   0.00072   0.00000   0.00234   0.00218  -2.64154
         Item               Value     Threshold  Converged?
 Maximum Force            0.084102     0.000450     NO 
 RMS     Force            0.016704     0.000300     NO 
 Maximum Displacement     0.157919     0.001800     NO 
 RMS     Displacement     0.028459     0.001200     NO 
 Predicted change in Energy=-4.938900D-02
 GradGradGradGradGradGradGradGradGradGradGradGradGradGradGradGradGradGrad

                          Input orientation:                          
 ---------------------------------------------------------------------
 Center     Atomic      Atomic             Coordinates (Angstroms)
 Number     Number       Type             X           Y           Z
 ---------------------------------------------------------------------
      1          6           0       -1.156741    0.874497    0.010716
      2          6           0        0.491673    2.392003    0.260223
      3          6           0       -1.448839    2.099562   -0.736409
      4          1           0        1.397428    2.853444    0.603319
      5          1           0       -1.956419    2.251136   -1.671493
      6          1           0       -1.831070    0.158661    0.416217
      7          6           0        0.920357    0.146664    1.164250
      8          1           0        1.986012    0.306475    1.161163
      9          1           0        0.512831    0.463213    2.110664
     10          6           0        0.630712   -1.348395    0.955791
     11          1           0       -0.433722   -1.511178    0.956387
     12          1           0        1.038109   -1.661631    0.008932
     13          6           0        1.273095   -2.168238    2.088251
     14          1           0        2.338205   -2.005008    2.088080
     15          1           0        0.864964   -1.852317    3.034079
     16          6           0        0.985457   -3.666338    1.882184
     17          1           0        1.393391   -3.988011    0.938897
     18          1           0        1.435373   -4.239195    2.675358
     19          1           0       -0.078091   -3.835331    1.883793
     20          6           0       -0.974869    4.416100    0.339611
     21          1           0       -1.640670    4.828022   -0.398969
     22          1           0       -1.458936    4.416636    1.300981
     23          1           0       -0.078428    5.010040    0.387157
     24          7           0        0.307364    0.930762    0.078529
     25          7           0       -0.631370    3.041456   -0.031443
     26         17           0       -3.090247    1.587222   -0.601900
 ---------------------------------------------------------------------
                    Distance matrix (angstroms):
                    1          2          3          4          5
     1  C    0.000000
     2  C    2.254406   0.000000
     3  C    1.464344   2.200996   0.000000
     4  H    3.284994   1.072862   3.234879   0.000000
     5  H    2.316128   3.121622   1.074706   4.097051   0.000000
     6  H    1.063754   3.226033   2.289486   4.209520   2.958496
     7  C    2.484898   2.458166   3.611012   2.805156   4.554787
     8  H    3.394565   2.719222   4.314411   2.672952   5.229571
     9  H    2.714112   2.672977   3.825129   2.961047   4.857836
    10  C    3.004896   3.807062   4.367662   4.285736   5.152911
    11  H    2.666176   4.071341   4.115029   4.746334   4.835222
    12  H    3.354000   4.098010   4.570231   4.568184   5.205840
    13  C    4.413444   4.974746   5.796701   5.238107   6.640505
    14  H    4.982131   5.107292   6.258348   5.166636   7.119897
    15  H    4.545715   5.084080   5.931914   5.323185   6.851345
    16  C    5.358226   6.291110   6.784425   6.656784   7.503316
    17  H    5.568543   6.479064   6.924122   6.849681   7.547339
    18  H    6.322121   7.120128   7.754913   7.389202   8.516089
    19  H    5.182121   6.460673   6.630788   6.968248   7.294741
    20  C    3.561489   2.500804   2.597849   2.852933   3.113687
    21  H    4.004047   3.303878   2.755932   3.759465   2.891254
    22  H    3.781912   2.997865   3.085433   3.330032   3.711129
    23  H    4.290359   2.682395   3.407537   2.622171   3.921280
    24  N    1.466754   1.483984   2.261518   2.271640   3.151298
    25  N    2.230135   1.329693   1.432619   2.134078   2.251693
    26  Cl   2.149819   3.771085   1.724762   4.816128   1.694219
                    6          7          8          9         10
     6  H    0.000000
     7  C    2.851324   0.000000
     8  H    3.891903   1.077576   0.000000
     9  H    2.908225   1.077951   1.759654   0.000000
    10  C    2.936448   1.537059   2.148863   2.151639   0.000000
    11  H    2.243374   2.150622   3.033300   2.475185   1.076809
    12  H    3.422212   2.149083   2.469737   3.034495   1.077326
    13  C    4.224452   2.517334   2.737142   2.739167   1.538593
    14  H    4.985924   2.737415   2.515187   3.069953   2.151453
    15  H    4.262139   2.737745   3.070008   2.517612   2.151300
    16  C    4.971167   3.880547   4.159835   4.162784   2.521291
    17  H    5.278752   4.167743   4.340877   4.686344   2.747642
    18  H    5.925749   4.667381   4.822770   4.825205   3.458485
    19  H    4.602030   4.167844   4.683724   4.344898   2.747442
    20  C    4.343355   4.743416   5.131353   4.579868   6.015560
    21  H    4.743808   5.560362   6.002601   5.476073   6.718830
    22  H    4.364819   4.890030   5.364759   4.491437   6.141772
    23  H    5.158340   5.025323   5.194662   4.898336   6.423076
    24  N    2.298494   1.472875   2.092771   2.095326   2.463472
    25  N    3.154392   3.495334   3.969020   3.541913   4.673143
    26  Cl   2.159369   4.612964   5.524229   4.647964   4.988965
                   11         12         13         14         15
    11  H    0.000000
    12  H    1.756870   0.000000
    13  C    2.150830   2.153007   0.000000
    14  H    3.034497   2.476088   1.077544   0.000000
    15  H    2.473816   3.036092   1.077482   1.757460   0.000000
    16  C    2.741511   2.744211   1.539319   2.152286   2.152220
    17  H    3.077880   2.530435   2.155705   2.479031   3.038126
    18  H    3.726990   3.729810   2.158678   2.480240   2.480168
    19  H    2.527497   3.079931   2.155622   3.038141   2.478882
    20  C    5.983801   6.410947   7.173883   7.433991   7.066696
    21  H    6.593874   7.032627   7.976462   8.288977   7.917761
    22  H    6.025678   6.697011   7.172472   7.501687   6.906802
    23  H    6.555649   6.775020   7.499867   7.612105   7.415397
    24  N    2.698687   2.694315   3.817777   4.096505   4.097770
    25  N    4.662762   4.990773   5.938097   6.227162   5.965354
    26  Cl   4.368691   5.288807   6.354459   7.043308   6.379221
                   16         17         18         19         20
    16  C    0.000000
    17  H    1.076882   0.000000
    18  H    1.076900   1.755037   0.000000
    19  H    1.076892   1.755392   1.755066   0.000000
    20  C    8.458618   8.751964   9.283271   8.442441   0.000000
    21  H    9.179017   9.419015  10.056239   9.094302   1.076323
    22  H    8.464474   8.882847   9.229808   8.386976   1.076360
    23  H    8.868285   9.134308   9.647580   8.971092   1.076398
    24  N    4.984607   5.110187   5.894436   5.111085   3.722885
    25  N    7.160348   7.379337   8.037790   7.159919   1.464691
    26  Cl   7.098023   7.318489   8.072719   6.682501   3.655655
                   21         22         23         24         25
    21  H    0.000000
    22  H    1.758435   0.000000
    23  H    1.758330   1.758694   0.000000
    24  N    4.383090   4.094573   4.109087   0.000000
    25  N    2.084606   2.085987   2.087174   2.312649   0.000000
    26  Cl   3.556014   3.779910   4.665294   3.526710   2.913124
                   26
    26  Cl   0.000000
 Stoichiometry    C8H15ClN2
 Framework group  C1[X(C8H15ClN2)]
 Deg. of freedom    72
 Full point group                 C1      NOp   1
 Largest Abelian subgroup         C1      NOp   1
 Largest concise Abelian subgroup C1      NOp   1
                         Standard orientation:                         
 ---------------------------------------------------------------------
 Center     Atomic      Atomic             Coordinates (Angstroms)
 Number     Number       Type             X           Y           Z
 ---------------------------------------------------------------------
      1          6           0        0.507076    0.594985   -0.124702
      2          6           0        0.995022   -1.597323   -0.319747
      3          6           0        1.902251    0.397647   -0.523256
      4          1           0        0.884209   -2.664056   -0.290866
      5          1           0        2.542824    0.980030   -1.160037
      6          1           0        0.068664    1.406665    0.404959
      7          6           0       -1.370445   -1.025682    0.027199
      8          1           0       -1.697453   -1.975262   -0.363355
      9          1           0       -1.221493   -1.107636    1.091660
     10          6           0       -2.442577    0.037624   -0.259963
     11          1           0       -2.117832    0.988404    0.127434
     12          1           0       -2.588535    0.118090   -1.324318
     13          6           0       -3.767922   -0.361542    0.411895
     14          1           0       -4.092716   -1.313215    0.024688
     15          1           0       -3.619056   -0.442523    1.475966
     16          6           0       -4.844243    0.701068    0.125720
     17          1           0       -4.998677    0.784510   -0.936760
     18          1           0       -5.771361    0.420797    0.596480
     19          1           0       -4.525445    1.654067    0.512834
     20          6           0        3.317401   -1.469574    0.599086
     21          1           0        4.185302   -0.944798    0.238767
     22          1           0        3.227960   -1.329911    1.662593
     23          1           0        3.414862   -2.518997    0.380350
     24          7           0       -0.102662   -0.644348   -0.618303
     25          7           0        2.122694   -0.941083   -0.063252
     26         17           0        2.140538    1.963450    0.159594
 ---------------------------------------------------------------------
 Rotational constants (GHZ):      1.7109856      0.4353677      0.3617946
 Standard basis: 6-311+G(d) (5D, 7F)
 There are   295 symmetry adapted basis functions of A   symmetry.
 Integral buffers will be    131072 words long.
 Raffenetti 2 integral format.
 Two-electron integral symmetry is turned on.
   295 basis functions,   488 primitive gaussians,   306 cartesian basis functions
    47 alpha electrons       47 beta electrons
       nuclear repulsion energy       720.9629268535 Hartrees.
 NAtoms=   26 NActive=   26 NUniq=   26 SFac= 7.50D-01 NAtFMM=   80 NAOKFM=F Big=F
 One-electron integrals computed using PRISM.
 NBasis=   295 RedAO= T  NBF=   295
 NBsUse=   295 1.00D-06 NBFU=   295
 Initial guess read from the read-write file.
 B after Tr=     0.000000    0.000000    0.000000
         Rot=    1.000000    0.000000    0.000000    0.000000 Ang=   0.00 deg.
 Initial guess orbital symmetries:
       Occupied  (A) (A) (A) (A) (A) (A) (A) (A) (A) (A) (A) (A)
                 (A) (A) (A) (A) (A) (A) (A) (A) (A) (A) (A) (A)
                 (A) (A) (A) (A) (A) (A) (A) (A) (A) (A) (A) (A)
                 (A) (A) (A) (A) (A) (A) (A) (A) (A) (A) (A)
       Virtual   (A) (A) (A) (A) (A) (A) (A) (A) (A) (A) (A) (A)
                 (A) (A) (A) (A) (A) (A) (A) (A) (A) (A) (A) (A)
                 (A) (A) (A) (A) (A) (A) (A) (A) (A) (A) (A) (A)
                 (A) (A) (A) (A) (A) (A) (A) (A) (A) (A) (A) (A)
                 (A) (A) (A) (A) (A) (A) (A) (A) (A) (A) (A) (A)
                 (A) (A) (A) (A) (A) (A) (A) (A) (A) (A) (A) (A)
                 (A) (A) (A) (A) (A) (A) (A) (A) (A) (A) (A) (A)
                 (A) (A) (A) (A) (A) (A) (A) (A) (A) (A) (A) (A)
                 (A) (A) (A) (A) (A) (A) (A) (A) (A) (A) (A) (A)
                 (A) (A) (A) (A) (A) (A) (A) (A) (A) (A) (A) (A)
                 (A) (A) (A) (A) (A) (A) (A) (A) (A) (A) (A) (A)
                 (A) (A) (A) (A) (A) (A) (A) (A) (A) (A) (A) (A)
                 (A) (A) (A) (A) (A) (A) (A) (A) (A) (A) (A) (A)
                 (A) (A) (A) (A) (A) (A) (A) (A) (A) (A) (A) (A)
                 (A) (A) (A) (A) (A) (A) (A) (A) (A) (A) (A) (A)
                 (A) (A) (A) (A) (A) (A) (A) (A) (A) (A) (A) (A)
                 (A) (A) (A) (A) (A) (A) (A) (A) (A) (A) (A) (A)
                 (A) (A) (A) (A) (A) (A) (A) (A) (A) (A) (A) (A)
                 (A) (A) (A) (A) (A) (A) (A) (A) (A) (A) (A) (A)
                 (A) (A) (A) (A) (A) (A) (A) (A) (A) (A) (A) (A)
                 (A) (A) (A) (A) (A) (A) (A) (A)
 Harris functional with IExCor= 1009 diagonalized for initial guess.
 ExpMin= 4.38D-02 ExpMax= 1.06D+05 ExpMxC= 3.62D+03 IAcc=2 IRadAn=         0 AccDes= 0.00D+00
 HarFok:  IExCor= 1009 AccDes= 0.00D+00 IRadAn=         0 IDoV= 1
 ScaDFX=  1.000000  1.000000  1.000000  1.000000
 FoFCou: FMM=F IPFlag=           0 FMFlag=      100000 FMFlg1=           0
         NFxFlg=           0 DoJE=T BraDBF=F KetDBF=T FulRan=T
         Omega=  0.000000  0.000000  1.000000  0.000000  0.000000 ICntrl=     500 IOpCl=  0
         NMat0=    1 NMatS0=    1 NMatT0=    0 NMatD0=    1 NMtDS0=    0 NMtDT0=    0
         I1Cent=           4 NGrid=           0.
 Petite list used in FoFCou.
 Requested convergence on RMS density matrix=1.00D-08 within 128 cycles.
 Requested convergence on MAX density matrix=1.00D-06.
 Requested convergence on             energy=1.00D-06.
 No special actions if energy rises.
 SCF Done:  E(RM062X) =  -883.200784235     A.U. after   16 cycles
             Convg  =    0.8499D-08             -V/T =  2.0021
 Calling FoFJK, ICntrl=      2127 FMM=F ISym2X=0 I1Cent= 0 IOpClX= 0 NMat=1 NMatS=1 NMatT=0.
 ***** Axes restored to original set *****
 -------------------------------------------------------------------
 Center     Atomic                   Forces (Hartrees/Bohr)
 Number     Number              X              Y              Z
 -------------------------------------------------------------------
[...]

 Orbital symmetries:
       Occupied  (A) (A) (A) (A) (A) (A) (A) (A) (A) (A) (A) (A)
                 (A) (A) (A) (A) (A) (A) (A) (A) (A) (A) (A) (A)
                 (A) (A) (A) (A) (A) (A) (A) (A) (A) (A) (A) (A)
                 (A) (A) (A) (A) (A) (A) (A) (A) (A) (A) (A)
       Virtual   (A) (A) (A) (A) (A) (A) (A) (A) (A) (A) (A) (A)
                 (A) (A) (A) (A) (A) (A) (A) (A) (A) (A) (A) (A)
                 (A) (A) (A) (A) (A) (A) (A) (A) (A) (A) (A) (A)
                 (A) (A) (A) (A) (A) (A) (A) (A) (A) (A) (A) (A)
                 (A) (A) (A) (A) (A) (A) (A) (A) (A) (A) (A) (A)
                 (A) (A) (A) (A) (A) (A) (A) (A) (A) (A) (A) (A)
                 (A) (A) (A) (A) (A) (A) (A) (A) (A) (A) (A) (A)
                 (A) (A) (A) (A) (A) (A) (A) (A) (A) (A) (A) (A)
                 (A) (A) (A) (A) (A) (A) (A) (A) (A) (A) (A) (A)
                 (A) (A) (A) (A) (A) (A) (A) (A) (A) (A) (A) (A)
                 (A) (A) (A) (A) (A) (A) (A) (A) (A) (A) (A) (A)
                 (A) (A) (A) (A) (A) (A) (A) (A) (A) (A) (A) (A)
                 (A) (A) (A) (A) (A) (A) (A) (A) (A) (A) (A) (A)
                 (A) (A) (A) (A) (A) (A) (A) (A) (A) (A) (A) (A)
                 (A) (A) (A) (A) (A) (A) (A) (A) (A) (A) (A) (A)
                 (A) (A) (A) (A) (A) (A) (A) (A) (A) (A) (A) (A)
                 (A) (A) (A) (A) (A) (A) (A) (A) (A) (A) (A) (A)
                 (A) (A) (A) (A) (A) (A) (A) (A) (A) (A) (A) (A)
                 (A) (A) (A) (A) (A) (A) (A) (A) (A) (A) (A) (A)
                 (A) (A) (A) (A) (A) (A) (A) (A) (A) (A) (A) (A)
                 (A) (A) (A) (A) (A) (A) (A) (A)
 The electronic state is 1-A.
 Alpha  occ. eigenvalues -- -102.51523 -14.84494 -14.84269 -10.65718 -10.60927
 Alpha  occ. eigenvalues --  -10.60829 -10.59980 -10.59751 -10.56120 -10.55154
 Alpha  occ. eigenvalues --  -10.53749  -9.65710  -7.37844  -7.37790  -7.37779
 Alpha  occ. eigenvalues --   -1.20113  -1.07701  -0.93400  -0.90818  -0.86958
 Alpha  occ. eigenvalues --   -0.82784  -0.77210  -0.74961  -0.72805  -0.70876
 Alpha  occ. eigenvalues --   -0.68395  -0.65093  -0.60118  -0.57289  -0.56780
 Alpha  occ. eigenvalues --   -0.55164  -0.54933  -0.53419  -0.53127  -0.50942
 Alpha  occ. eigenvalues --   -0.49321  -0.48750  -0.46873  -0.44646  -0.42261
 Alpha  occ. eigenvalues --   -0.41718  -0.40999  -0.37446  -0.33944  -0.25627
 Alpha  occ. eigenvalues --   -0.25439  -0.24851
 Alpha virt. eigenvalues --   -0.00673   0.00519   0.00836   0.01723   0.02318
 Alpha virt. eigenvalues --    0.02625   0.02867   0.03156   0.04394   0.04658
 Alpha virt. eigenvalues --    0.05127   0.06083   0.06288   0.06732   0.07537
 Alpha virt. eigenvalues --    0.07849   0.08673   0.08986   0.09681   0.10575
 Alpha virt. eigenvalues --    0.10752   0.11852   0.12061   0.13087   0.13235
 Alpha virt. eigenvalues --    0.13962   0.14869   0.15149   0.15804   0.16216
 Alpha virt. eigenvalues --    0.16528   0.17030   0.17976   0.18131   0.18603
 Alpha virt. eigenvalues --    0.19227   0.19602   0.19794   0.20423   0.20444
 Alpha virt. eigenvalues --    0.21072   0.21733   0.22026   0.22755   0.23196
 Alpha virt. eigenvalues --    0.23314   0.23600   0.24440   0.24864   0.25410
 Alpha virt. eigenvalues --    0.26146   0.26622   0.27061   0.27458   0.27533
 Alpha virt. eigenvalues --    0.28817   0.29223   0.29927   0.30025   0.30937
 Alpha virt. eigenvalues --    0.31722   0.33039   0.33409   0.33778   0.35003
 Alpha virt. eigenvalues --    0.35529   0.38047   0.40608   0.41978   0.42795
 Alpha virt. eigenvalues --    0.43770   0.45303   0.45645   0.45705   0.47802
 Alpha virt. eigenvalues --    0.48054   0.50477   0.52494   0.52986   0.55124
 Alpha virt. eigenvalues --    0.55747   0.57523   0.58555   0.59129   0.61260
 Alpha virt. eigenvalues --    0.61861   0.62287   0.63284   0.63555   0.64591
 Alpha virt. eigenvalues --    0.65221   0.66599   0.66757   0.67080   0.69140
 Alpha virt. eigenvalues --    0.69628   0.70436   0.71301   0.71683   0.71815
 Alpha virt. eigenvalues --    0.73184   0.73502   0.73732   0.74793   0.75779
 Alpha virt. eigenvalues --    0.77588   0.77999   0.78884   0.80238   0.80971
 Alpha virt. eigenvalues --    0.81875   0.84890   0.87897   0.88453   0.89717
 Alpha virt. eigenvalues --    0.93280   0.95445   0.97355   0.99020   1.00929
 Alpha virt. eigenvalues --    1.00989   1.02784   1.03798   1.05272   1.07192
 Alpha virt. eigenvalues --    1.08506   1.10702   1.11906   1.12871   1.14480
 Alpha virt. eigenvalues --    1.15871   1.18095   1.19306   1.21740   1.25204
 Alpha virt. eigenvalues --    1.26115   1.29245   1.31597   1.34166   1.37329
 Alpha virt. eigenvalues --    1.41813   1.44046   1.45969   1.50940   1.53614
 Alpha virt. eigenvalues --    1.55940   1.56632   1.58255   1.61039   1.61384
 Alpha virt. eigenvalues --    1.61750   1.63549   1.65252   1.67563   1.69151
 Alpha virt. eigenvalues --    1.70413   1.71404   1.74496   1.75005   1.76838
 Alpha virt. eigenvalues --    1.79250   1.83573   1.84331   1.85586   1.86991
 Alpha virt. eigenvalues --    1.88015   1.91105   1.92781   1.97092   1.97950
 Alpha virt. eigenvalues --    1.99027   2.08586   2.19073   2.21884   2.26546
 Alpha virt. eigenvalues --    2.28110   2.33852   2.37617   2.43064   2.44730
 Alpha virt. eigenvalues --    2.45275   2.47487   2.48501   2.51793   2.53849
 Alpha virt. eigenvalues --    2.54075   2.54717   2.55884   2.57413   2.60251
 Alpha virt. eigenvalues --    2.60795   2.61398   2.62703   2.63278   2.64409
 Alpha virt. eigenvalues --    2.66259   2.67931   2.68807   2.72259   2.81172
 Alpha virt. eigenvalues --    2.86442   2.90113   2.98974   3.01888   3.04106
 Alpha virt. eigenvalues --    3.06519   3.11197   3.14645   3.16959   3.19485
 Alpha virt. eigenvalues --    3.21877   3.25085   3.26645   3.27884   3.28923
 Alpha virt. eigenvalues --    3.34995   3.37949   3.45370   3.47482   3.54317
 Alpha virt. eigenvalues --    3.57447   3.61310   3.66310   3.69866   3.89634
 Alpha virt. eigenvalues --    3.93405   3.97303   4.01072   4.11851   4.67563
 Alpha virt. eigenvalues --    4.85950   4.91941   5.19474  10.04329  23.53264
 Alpha virt. eigenvalues --   23.59536  23.67034  23.70798  23.76728  23.81033
 Alpha virt. eigenvalues --   23.88983  24.16909  26.08809  26.19866  26.33277
 Alpha virt. eigenvalues --   35.53986  35.65793 216.14141
          Condensed to atoms (all electrons):
              1          2          3          4          5          6
     1  C    7.336358   0.420131  -2.028258   0.009324   0.045963   0.432887
     2  C    0.420131   8.197934  -1.463577   0.274753   0.030366   0.013230
     3  C   -2.028258  -1.463577   9.176757   0.011725   0.330591  -0.077468
     4  H    0.009324   0.274753   0.011725   0.392647  -0.000215  -0.000183
     5  H    0.045963   0.030366   0.330591  -0.000215   0.392951  -0.000902
     6  H    0.432887   0.013230  -0.077468  -0.000183  -0.000902   0.394464
     7  C   -0.347720  -0.395868   0.209529   0.083789  -0.008645   0.036219
     8  H   -0.029065  -0.003377   0.008610   0.002097   0.000011  -0.000126
     9  H    0.031734  -0.007548  -0.017760  -0.000029   0.000013  -0.000514
    10  C   -0.059318  -0.128319  -0.008670  -0.017281   0.006306  -0.025254
    11  H    0.012820  -0.004073   0.027538  -0.000054   0.000007  -0.000582
    12  H    0.028648   0.020638  -0.010406  -0.000012  -0.000011   0.000066
    13  C   -0.137553  -0.052630  -0.135562   0.006408  -0.000288   0.011061
    14  H   -0.003155  -0.001202  -0.001152  -0.000010   0.000000  -0.000041
    15  H    0.011107   0.003256   0.002261  -0.000003   0.000000   0.000045
    16  C   -0.025949  -0.031666   0.017965  -0.000110   0.000015  -0.000558
    17  H    0.003172  -0.000315   0.001051   0.000000   0.000000   0.000026
    18  H    0.000676   0.000142  -0.000001   0.000000   0.000000   0.000001
    19  H   -0.003710   0.000159  -0.001151   0.000000   0.000000  -0.000034
    20  C    0.219039  -0.074511  -0.340292  -0.008608  -0.010527   0.001856
    21  H    0.070555   0.044414  -0.077735  -0.000341   0.000104   0.000057
    22  H   -0.011815  -0.044653   0.013739   0.000213  -0.000075  -0.000018
    23  H   -0.007965   0.005619   0.015447   0.002378   0.000154   0.000003
    24  N   -0.158689  -0.087245   0.530577  -0.050949   0.023234  -0.082291
    25  N    0.167616  -0.075509   0.262410  -0.003623  -0.081880   0.019130
    26  Cl  -0.028539  -0.518880   0.245899  -0.022999  -0.001840  -0.002628
              7          8          9         10         11         12
     1  C   -0.347720  -0.029065   0.031734  -0.059318   0.012820   0.028648
     2  C   -0.395868  -0.003377  -0.007548  -0.128319  -0.004073   0.020638
     3  C    0.209529   0.008610  -0.017760  -0.008670   0.027538  -0.010406
     4  H    0.083789   0.002097  -0.000029  -0.017281  -0.000054  -0.000012
     5  H   -0.008645   0.000011   0.000013   0.006306   0.000007  -0.000011
     6  H    0.036219  -0.000126  -0.000514  -0.025254  -0.000582   0.000066
     7  C    8.152717   0.443354   0.298262  -1.645702  -0.062612  -0.052655
     8  H    0.443354   0.466228  -0.030220  -0.019917   0.006586  -0.006305
     9  H    0.298262  -0.030220   0.333095   0.019141  -0.006210   0.002409
    10  C   -1.645702  -0.019917   0.019141   8.597965   0.496822   0.405472
    11  H   -0.062612   0.006586  -0.006210   0.496822   0.468677  -0.042208
    12  H   -0.052655  -0.006305   0.002409   0.405472  -0.042208   0.436073
    13  C    0.671251  -0.001180  -0.030997  -1.568606  -0.157926  -0.056640
    14  H   -0.039489   0.003572   0.000654  -0.017442   0.006644  -0.008542
    15  H    0.049618  -0.000965   0.000406  -0.044342  -0.005947   0.006372
    16  C   -0.303456   0.017511  -0.003856   0.355850   0.026114  -0.031279
    17  H    0.010395   0.000008  -0.000031  -0.027483  -0.000492   0.004727
    18  H    0.008064  -0.000046  -0.000024   0.086373  -0.000186  -0.000134
    19  H   -0.001971  -0.000040   0.000101  -0.067363   0.002655  -0.000691
    20  C   -0.028103   0.000583   0.000794  -0.054807  -0.000093   0.000949
    21  H   -0.001219  -0.000002  -0.000001  -0.000564   0.000000   0.000000
    22  H   -0.003419   0.000020   0.000019   0.000751   0.000002   0.000000
    23  H    0.006556  -0.000065   0.000017   0.000986  -0.000001   0.000000
    24  N   -0.303716  -0.108106   0.017685   0.265761  -0.019070   0.031017
    25  N    0.059812  -0.000378   0.007280  -0.245738  -0.000428   0.004446
    26  Cl  -0.181358  -0.002811   0.025195   0.140168   0.000107  -0.000092
             13         14         15         16         17         18
     1  C   -0.137553  -0.003155   0.011107  -0.025949   0.003172   0.000676
     2  C   -0.052630  -0.001202   0.003256  -0.031666  -0.000315   0.000142
     3  C   -0.135562  -0.001152   0.002261   0.017965   0.001051  -0.000001
     4  H    0.006408  -0.000010  -0.000003  -0.000110   0.000000   0.000000
     5  H   -0.000288   0.000000   0.000000   0.000015   0.000000   0.000000
     6  H    0.011061  -0.000041   0.000045  -0.000558   0.000026   0.000001
     7  C    0.671251  -0.039489   0.049618  -0.303456   0.010395   0.008064
     8  H   -0.001180   0.003572  -0.000965   0.017511   0.000008  -0.000046
     9  H   -0.030997   0.000654   0.000406  -0.003856  -0.000031  -0.000024
    10  C   -1.568606  -0.017442  -0.044342   0.355850  -0.027483   0.086373
    11  H   -0.157926   0.006644  -0.005947   0.026114  -0.000492  -0.000186
    12  H   -0.056640  -0.008542   0.006372  -0.031279   0.004727  -0.000134
    13  C    7.662797   0.412321   0.372310  -0.426297  -0.008155  -0.119469
    14  H    0.412321   0.467829  -0.038289  -0.029624  -0.008313  -0.003609
    15  H    0.372310  -0.038289   0.442594  -0.072946   0.006054  -0.003773
    16  C   -0.426297  -0.029624  -0.072946   6.474816   0.363863   0.378042
    17  H   -0.008155  -0.008313   0.006054   0.363863   0.462235  -0.026034
    18  H   -0.119469  -0.003609  -0.003773   0.378042  -0.026034   0.431870
    19  H    0.052694   0.006418  -0.008041   0.363756  -0.037144  -0.024238
    20  C   -0.000913  -0.000060   0.000112  -0.000650   0.000003   0.000000
    21  H    0.000036   0.000000   0.000000  -0.000004   0.000000   0.000000
    22  H   -0.000056   0.000000   0.000000   0.000005   0.000000   0.000000
    23  H   -0.000031   0.000000   0.000000   0.000000   0.000000   0.000000
    24  N   -0.089481  -0.004020   0.005517  -0.041337  -0.000362   0.000447
    25  N    0.000159  -0.000204   0.000362  -0.003303   0.000008   0.000003
    26  Cl  -0.024501   0.000128  -0.000270   0.000990  -0.000004   0.000000
             19         20         21         22         23         24
     1  C   -0.003710   0.219039   0.070555  -0.011815  -0.007965  -0.158689
     2  C    0.000159  -0.074511   0.044414  -0.044653   0.005619  -0.087245
     3  C   -0.001151  -0.340292  -0.077735   0.013739   0.015447   0.530577
     4  H    0.000000  -0.008608  -0.000341   0.000213   0.002378  -0.050949
     5  H    0.000000  -0.010527   0.000104  -0.000075   0.000154   0.023234
     6  H   -0.000034   0.001856   0.000057  -0.000018   0.000003  -0.082291
     7  C   -0.001971  -0.028103  -0.001219  -0.003419   0.006556  -0.303716
     8  H   -0.000040   0.000583  -0.000002   0.000020  -0.000065  -0.108106
     9  H    0.000101   0.000794  -0.000001   0.000019   0.000017   0.017685
    10  C   -0.067363  -0.054807  -0.000564   0.000751   0.000986   0.265761
    11  H    0.002655  -0.000093   0.000000   0.000002  -0.000001  -0.019070
    12  H   -0.000691   0.000949   0.000000   0.000000   0.000000   0.031017
    13  C    0.052694  -0.000913   0.000036  -0.000056  -0.000031  -0.089481
    14  H    0.006418  -0.000060   0.000000   0.000000   0.000000  -0.004020
    15  H   -0.008041   0.000112   0.000000   0.000000   0.000000   0.005517
    16  C    0.363756  -0.000650  -0.000004   0.000005   0.000000  -0.041337
    17  H   -0.037144   0.000003   0.000000   0.000000   0.000000  -0.000362
    18  H   -0.024238   0.000000   0.000000   0.000000   0.000000   0.000447
    19  H    0.459499  -0.000005   0.000000   0.000000   0.000000  -0.000019
    20  C   -0.000005   5.842186   0.412140   0.390118   0.375452  -0.180798
    21  H    0.000000   0.412140   0.463349  -0.022034  -0.022544  -0.019049
    22  H    0.000000   0.390118  -0.022034   0.337490  -0.023469   0.010434
    23  H    0.000000   0.375452  -0.022544  -0.023469   0.441973   0.009924
    24  N   -0.000019  -0.180798  -0.019049   0.010434   0.009924   7.166403
    25  N   -0.000015   0.157798  -0.085852  -0.011987  -0.062114  -0.379116
    26  Cl   0.000008   0.029775  -0.002980   0.014632  -0.002760   0.187396
             25         26
     1  C    0.167616  -0.028539
     2  C   -0.075509  -0.518880
     3  C    0.262410   0.245899
     4  H   -0.003623  -0.022999
     5  H   -0.081880  -0.001840
     6  H    0.019130  -0.002628
     7  C    0.059812  -0.181358
     8  H   -0.000378  -0.002811
     9  H    0.007280   0.025195
    10  C   -0.245738   0.140168
    11  H   -0.000428   0.000107
    12  H    0.004446  -0.000092
    13  C    0.000159  -0.024501
    14  H   -0.000204   0.000128
    15  H    0.000362  -0.000270
    16  C   -0.003303   0.000990
    17  H    0.000008  -0.000004
    18  H    0.000003   0.000000
    19  H   -0.000015   0.000008
    20  C    0.157798   0.029775
    21  H   -0.085852  -0.002980
    22  H   -0.011987   0.014632
    23  H   -0.062114  -0.002760
    24  N   -0.379116   0.187396
    25  N    6.916330   0.091418
    26  Cl   0.091418  17.778984
 Mulliken atomic charges:
              1
     1  C    0.051703
     2  C   -0.121272
     3  C   -0.692069
     4  H    0.321080
     5  H    0.274668
     6  H    0.281554
     7  C   -0.653632
     8  H    0.254023
     9  H    0.360386
    10  C   -0.444790
    11  H    0.251909
    12  H    0.268159
    13  C   -0.378754
    14  H    0.257588
    15  H    0.274561
    16  C   -1.027893
    17  H    0.256791
    18  H    0.271896
    19  H    0.259133
    20  C   -0.731439
    21  H    0.241668
    22  H    0.350103
    23  H    0.260438
    24  N    0.275853
    25  N    0.263374
    26  Cl  -0.725039
 Sum of Mulliken atomic charges =   0.00000
 Mulliken charges with hydrogens summed into heavy atoms:
              1
     1  C    0.333257
     2  C    0.199809
     3  C   -0.417401
     7  C   -0.039223
    10  C    0.075278
    13  C    0.153395
    16  C   -0.240073
    20  C    0.120771
    24  N    0.275853
    25  N    0.263374
    26  Cl  -0.725039
 Sum of Mulliken charges with hydrogens summed into heavy atoms =   0.00000
 Electronic spatial extent (au):  <R**2>=           3029.3386
 Charge=              0.0000 electrons
 Dipole moment (field-independent basis, Debye):
    X=             -2.3447    Y=             -8.2443    Z=              2.6315  Tot=              8.9661
 Quadrupole moment (field-independent basis, Debye-Ang):
   XX=            -64.4299   YY=            -91.6635   ZZ=            -73.9867
   XY=            -17.4942   XZ=              4.9478   YZ=              8.1882
 Traceless Quadrupole moment (field-independent basis, Debye-Ang):
   XX=             12.2635   YY=            -14.9701   ZZ=              2.7066
   XY=            -17.4942   XZ=              4.9478   YZ=              8.1882
 Octapole moment (field-independent basis, Debye-Ang**2):
  XXX=             35.3963  YYY=            -46.1828  ZZZ=              8.8867  XYY=            -23.4496
  XXY=            -35.4935  XXZ=             12.4439  XZZ=              2.9128  YZZ=             -7.7454
  YYZ=             -0.2037  XYZ=             11.5806
 Hexadecapole moment (field-independent basis, Debye-Ang**3):
 XXXX=          -2945.9230 YYYY=           -851.5904 ZZZZ=           -247.9080 XXXY=           -129.6788
 XXXZ=             18.2467 YYYX=            -91.0052 YYYZ=             33.1645 ZZZX=             18.1360
 ZZZY=             18.1850 XXYY=           -683.8292 XXZZ=           -559.6975 YYZZ=           -168.7240
 XXYZ=             22.1091 YYXZ=             -0.7233 ZZXY=            -12.8522
 N-N= 7.108164874273D+02 E-N=-3.497950385107D+03  KE= 8.808069696515D+02
 1\1\GINC-N0289\FOpt\RM062X\6-311+G(d)\C8H15Cl1N2\WAB665\08-Mar-2017\0\
 \# opt M062X/6-311+G* geom=connectivity\\Title Card Required\\0,1\C,-0
 .9167879273,0.7441452699,-0.5100746875\C,0.0725259747,2.3719662436,0.5
 842507134\C,-1.3564558065,1.9182470025,-1.0202640005\H,0.7036491075,2.
 9076787994,1.2705794218\H,-2.0726253189,2.1272113167,-1.7964137457\H,-
 1.1724219638,-0.2680104437,-0.7673154952\C,0.5391325215,0.1480573757,1
 .5003150111\H,1.548315735,0.4890350237,1.743060513\H,-0.0957870828,0.3
 060507955,2.3784013871\C,0.5624514829,-1.3062496237,1.0628371711\H,-0.
 4605619312,-1.6657136053,0.9100050944\H,1.08901825,-1.4044993969,0.106
 3805997\C,1.2398977278,-2.1815056197,2.1163106862\H,2.2699490538,-1.84
 0199741,2.2643239457\H,0.729589511,-2.0508619073,3.0758055091\C,1.2363
 546905,-3.6556658225,1.7248563316\H,1.762339947,-3.8130496579,0.779584
 0419\H,1.7248867197,-4.2696692675,2.4833140959\H,0.2157596434,-4.02725
 83755,1.6037684051\C,-1.0702270013,4.333500902,-0.3417013319\H,-1.4768
 372567,4.6006781316,-1.3151685449\H,-1.8063209648,4.4700664993,0.45311
 75905\H,-0.1923327304,4.9438887575,-0.1378645272\N,0.0207456295,1.0459
 060682,0.4611907183\N,-0.6854078822,2.9290674366,-0.359698156\Cl,-1.61
 32803486,2.6474330091,2.6347633727\\Version=EM64L-G09RevA.02\State=1-A
 \HF=-883.4839477\RMSD=5.235e-09\RMSF=1.144e-05\Dipole=1.7064748,-0.975
 4273,-2.9291564\Quadrupole=-2.3907092,7.0694687,-4.6787595,3.5003478,1
 1.0377071,-12.3456216\PG=C01 [X(C8H15Cl1N2)]\\@


 Democracy is the recurrent suspicion that more than half of the people
 are right more than half of the time.
 -- E. B. White
 Job cpu time:  0 days 22 hours 10 minutes 42.1 seconds.
 File lengths (MBytes):  RWF=    202 Int=      0 D2E=      0 Chk=      8 Scr=      4
 Normal termination of Gaussian 09 at Wed Mar  8 18:15:04 2017.
