 Entering Gaussian System, Link 0=g09
 Input=PAM_FOR_4.com
 Output=PAM_FOR_4.log
 Initial command:
 /gscratch/pfaendtner/codes/G09/g09/l1.exe /gscratch/pfaendtner/wesley/gaussian/Gau-2137.inp -scrdir=/gscratch/pfaendtner/wesley/gaussian/
 Entering Link 1 = /gscratch/pfaendtner/codes/G09/g09/l1.exe PID=      2138.
  
 Copyright (c) 1988,1990,1992,1993,1995,1998,2003,2009, Gaussian, Inc.
                  All Rights Reserved.
  
 This is part of the Gaussian(R) 09 program.  It is based on
 the Gaussian(R) 03 system (copyright 2003, Gaussian, Inc.),
 the Gaussian(R) 98 system (copyright 1998, Gaussian, Inc.),
 the Gaussian(R) 94 system (copyright 1995, Gaussian, Inc.),
 the Gaussian 92(TM) system (copyright 1992, Gaussian, Inc.),
 the Gaussian 90(TM) system (copyright 1990, Gaussian, Inc.),
 the Gaussian 88(TM) system (copyright 1988, Gaussian, Inc.),
 the Gaussian 86(TM) system (copyright 1986, Carnegie Mellon
 University), and the Gaussian 82(TM) system (copyright 1983,
 Carnegie Mellon University). Gaussian is a federally registered
 trademark of Gaussian, Inc.
  
 This software contains proprietary and confidential information,
 including trade secrets, belonging to Gaussian, Inc.
  
 This software is provided under written license and may be
 used, copied, transmitted, or stored only in accord with that
 written license.
  
 The following legend is applicable only to US Government
 contracts under FAR:
  
                    RESTRICTED RIGHTS LEGEND
  
 Use, reproduction and disclosure by the US Government is
 subject to restrictions as set forth in subparagraphs (a)
 and (c) of the Commercial Computer Software - Restricted
 Rights clause in FAR 52.227-19.
  
 Gaussian, Inc.
 340 Quinnipiac St., Bldg. 40, Wallingford CT 06492
  
  
 ---------------------------------------------------------------
 Warning -- This program may not be used in any manner that
 competes with the business of Gaussian, Inc. or will provide
 assistance to any competitor of Gaussian, Inc.  The licensee
 of this program is prohibited from giving any competitor of
 Gaussian, Inc. access to this program.  By using this program,
 the user acknowledges that Gaussian, Inc. is engaged in the
 business of creating and licensing software in the field of
 computational chemistry and represents and warrants to the
 licensee that it is not a competitor of Gaussian, Inc. and that
 it will not use this program in any manner prohibited above.
 ---------------------------------------------------------------
  

 Cite this work as:
 Gaussian 09, Revision A.02,
 M. J. Frisch, G. W. Trucks, H. B. Schlegel, G. E. Scuseria, 
 M. A. Robb, J. R. Cheeseman, G. Scalmani, V. Barone, B. Mennucci, 
 G. A. Petersson, H. Nakatsuji, M. Caricato, X. Li, H. P. Hratchian, 
 A. F. Izmaylov, J. Bloino, G. Zheng, J. L. Sonnenberg, M. Hada, 
 M. Ehara, K. Toyota, R. Fukuda, J. Hasegawa, M. Ishida, T. Nakajima, 
 Y. Honda, O. Kitao, H. Nakai, T. Vreven, J. A. Montgomery, Jr., 
 J. E. Peralta, F. Ogliaro, M. Bearpark, J. J. Heyd, E. Brothers, 
 K. N. Kudin, V. N. Staroverov, R. Kobayashi, J. Normand, 
 K. Raghavachari, A. Rendell, J. C. Burant, S. S. Iyengar, J. Tomasi, 
 M. Cossi, N. Rega, J. M. Millam, M. Klene, J. E. Knox, J. B. Cross, 
 V. Bakken, C. Adamo, J. Jaramillo, R. Gomperts, R. E. Stratmann, 
 O. Yazyev, A. J. Austin, R. Cammi, C. Pomelli, J. W. Ochterski, 
 R. L. Martin, K. Morokuma, V. G. Zakrzewski, G. A. Voth, 
 P. Salvador, J. J. Dannenberg, S. Dapprich, A. D. Daniels, 
 O. Farkas, J. B. Foresman, J. V. Ortiz, J. Cioslowski, 
 and D. J. Fox, Gaussian, Inc., Wallingford CT, 2009.
 
 ******************************************
 Gaussian 09:  EM64L-G09RevA.02 11-Jun-2009
                 8-Mar-2017 
 ******************************************
 %chk=PAM_FOR_4.chk
 %nprocshared=2
 Will use up to    2 processors via shared memory.
 --------------------------------------
 # opt M062X/6-311+G* geom=connectivity
 --------------------------------------
 1/14=-1,18=20,19=15,26=3,38=1,57=2/1,3;
 2/9=110,12=2,17=6,18=5,40=1/2;
 3/5=4,6=6,7=11,11=2,16=1,25=1,30=1,71=1,74=-55/1,2,3;
 4//1;
 5/5=2,38=5/2;
 6/7=2,8=2,9=2,10=2,28=1/1;
 7//1,2,3,16;
 1/14=-1,18=20,19=15/3(2);
 2/9=110/2;
 99//99;
 2/9=110/2;
 3/5=4,6=6,7=11,11=2,16=1,25=1,30=1,71=1,74=-55/1,2,3;
 4/5=5,16=3/1;
 5/5=2,38=5/2;
 7//1,2,3,16;
 1/14=-1,18=20,19=15/3(-5);
 2/9=110/2;
 6/7=2,8=2,9=2,10=2,19=2,28=1/1;
 99/9=1/99;
 -------------------
 Title Card Required
 -------------------
 Symbolic Z-matrix:
 Charge =  0 Multiplicity = 1
 C(PDBName=C1,ResName=PAM,ResNum=1) -2.13114  -0.80019   0.11587 
 H(PDBName=H1,ResName=PAM,ResNum=1) -1.89144  -1.8138    0.3609 
 H(PDBName=H2,ResName=PAM,ResNum=1) -3.19353  -0.69064   0.05081 
 C(PDBName=C2,ResName=PAM,ResNum=1) -1.58467   0.13547   1.21018 
 H(PDBName=H3,ResName=PAM,ResNum=1) -1.82437   1.14908   0.96516 
 H(PDBName=H4,ResName=PAM,ResNum=1) -2.02766  -0.1185    2.15048 
 C(PDBName=C3,ResName=PAM,ResNum=1) -0.05563  -0.02219   1.30382 
 H(PDBName=H5,ResName=PAM,ResNum=1)  0.38737   0.23177   0.36352 
 H(PDBName=H6,ResName=PAM,ResNum=1)  0.18407  -1.0358    1.54885 
 C(PDBName=C4,ResName=PAM,ResNum=1)  0.49085   0.91346   2.39813 
 H(PDBName=H7,ResName=PAM,ResNum=1)  0.04785   0.6595    3.33843 
 H(PDBName=H8,ResName=PAM,ResNum=1)  0.25115   1.92707   2.1531 
 N(PDBName=N1,ResName=PAM,ResNum=1)  1.95039   0.76297   2.48751 
 H(PDBName=H9,ResName=PAM,ResNum=1)  2.30524   1.37054   3.1981 
 H(PDBName=H10,ResName=PAM,ResNum=1)  2.17441  -0.18433   2.71651 
 H(PDBName=H11,ResName=PAM,ResNum=1)  2.3644    1.00032   1.60873 
 C(PDBName=C5,ResName=PAM,ResNum=1) -1.49356  -0.43467  -1.23745 
 H(PDBName=H12,ResName=PAM,ResNum=1) -0.43118  -0.54421  -1.17239 
 H(PDBName=H13,ResName=PAM,ResNum=1) -1.87326  -1.08477  -1.99778 
 H(PDBName=H14,ResName=PAM,ResNum=1) -1.73327   0.57894  -1.48248 
 O                     1.67883   1.04637   0.54624 
 C                     0.42043   1.04379   0.54595 
 H                    -0.11647   1.96879   0.5777 
 O                    -0.20653  -0.04666   0.50832 
 

 GradGradGradGradGradGradGradGradGradGradGradGradGradGradGradGradGradGrad
 Berny optimization.
 Initialization pass.
                           ----------------------------
                           !    Initial Parameters    !
                           ! (Angstroms and Degrees)  !
 --------------------------                            --------------------------
 ! Name  Definition              Value          Derivative Info.                !
 --------------------------------------------------------------------------------
 ! R1    R(1,2)                  1.07           estimate D2E/DX2                !
 ! R2    R(1,3)                  1.07           estimate D2E/DX2                !
 ! R3    R(1,4)                  1.54           estimate D2E/DX2                !
 ! R4    R(1,17)                 1.54           estimate D2E/DX2                !
 ! R5    R(4,5)                  1.07           estimate D2E/DX2                !
 ! R6    R(4,6)                  1.07           estimate D2E/DX2                !
 ! R7    R(4,7)                  1.54           estimate D2E/DX2                !
 ! R8    R(4,24)                 1.5573         estimate D2E/DX2                !
 ! R9    R(7,8)                  1.07           estimate D2E/DX2                !
 ! R10   R(7,9)                  1.07           estimate D2E/DX2                !
 ! R11   R(7,10)                 1.54           estimate D2E/DX2                !
 ! R12   R(7,24)                 0.8101         estimate D2E/DX2                !
 ! R13   R(8,22)                 0.8329         estimate D2E/DX2                !
 ! R14   R(8,24)                 0.6717         estimate D2E/DX2                !
 ! R15   R(10,11)                1.07           estimate D2E/DX2                !
 ! R16   R(10,12)                1.07           estimate D2E/DX2                !
 ! R17   R(10,13)                1.47           estimate D2E/DX2                !
 ! R18   R(13,14)                1.0            estimate D2E/DX2                !
 ! R19   R(13,15)                1.0            estimate D2E/DX2                !
 ! R20   R(13,16)                1.0            estimate D2E/DX2                !
 ! R21   R(16,21)                1.2653         estimate D2E/DX2                !
 ! R22   R(17,18)                1.07           estimate D2E/DX2                !
 ! R23   R(17,19)                1.07           estimate D2E/DX2                !
 ! R24   R(17,20)                1.07           estimate D2E/DX2                !
 ! R25   R(21,22)                1.2584         estimate D2E/DX2                !
 ! R26   R(22,23)                1.07           estimate D2E/DX2                !
 ! R27   R(22,24)                1.2584         estimate D2E/DX2                !
 ! A1    A(2,1,3)              109.4712         estimate D2E/DX2                !
 ! A2    A(2,1,4)              109.4712         estimate D2E/DX2                !
 ! A3    A(2,1,17)             109.4712         estimate D2E/DX2                !
 ! A4    A(3,1,4)              109.4712         estimate D2E/DX2                !
 ! A5    A(3,1,17)             109.4712         estimate D2E/DX2                !
 ! A6    A(4,1,17)             109.4712         estimate D2E/DX2                !
 ! A7    A(1,4,5)              109.4712         estimate D2E/DX2                !
 ! A8    A(1,4,6)              109.4712         estimate D2E/DX2                !
 ! A9    A(1,4,7)              109.4712         estimate D2E/DX2                !
 ! A10   A(1,4,24)              85.5675         estimate D2E/DX2                !
 ! A11   A(5,4,6)              109.4712         estimate D2E/DX2                !
 ! A12   A(5,4,7)              109.4712         estimate D2E/DX2                !
 ! A13   A(5,4,24)             101.8783         estimate D2E/DX2                !
 ! A14   A(6,4,7)              109.4712         estimate D2E/DX2                !
 ! A15   A(6,4,24)             137.2821         estimate D2E/DX2                !
 ! A16   A(4,7,8)              109.4712         estimate D2E/DX2                !
 ! A17   A(4,7,9)              109.4712         estimate D2E/DX2                !
 ! A18   A(4,7,10)             109.4712         estimate D2E/DX2                !
 ! A19   A(8,7,9)              109.4712         estimate D2E/DX2                !
 ! A20   A(8,7,10)             109.4712         estimate D2E/DX2                !
 ! A21   A(9,7,10)             109.4712         estimate D2E/DX2                !
 ! A22   A(9,7,24)             103.7689         estimate D2E/DX2                !
 ! A23   A(10,7,24)            141.4693         estimate D2E/DX2                !
 ! A24   A(7,8,22)              93.1735         estimate D2E/DX2                !
 ! A25   A(7,10,11)            109.4712         estimate D2E/DX2                !
 ! A26   A(7,10,12)            109.4712         estimate D2E/DX2                !
 ! A27   A(7,10,13)            109.4712         estimate D2E/DX2                !
 ! A28   A(11,10,12)           109.4712         estimate D2E/DX2                !
 ! A29   A(11,10,13)           109.4712         estimate D2E/DX2                !
 ! A30   A(12,10,13)           109.4712         estimate D2E/DX2                !
 ! A31   A(10,13,14)           109.4712         estimate D2E/DX2                !
 ! A32   A(10,13,15)           109.4712         estimate D2E/DX2                !
 ! A33   A(10,13,16)           109.4712         estimate D2E/DX2                !
 ! A34   A(14,13,15)           109.4712         estimate D2E/DX2                !
 ! A35   A(14,13,16)           109.4712         estimate D2E/DX2                !
 ! A36   A(15,13,16)           109.4712         estimate D2E/DX2                !
 ! A37   A(1,17,18)            109.4712         estimate D2E/DX2                !
 ! A38   A(1,17,19)            109.4712         estimate D2E/DX2                !
 ! A39   A(1,17,20)            109.4712         estimate D2E/DX2                !
 ! A40   A(18,17,19)           109.4712         estimate D2E/DX2                !
 ! A41   A(18,17,20)           109.4712         estimate D2E/DX2                !
 ! A42   A(19,17,20)           109.4712         estimate D2E/DX2                !
 ! A43   A(8,22,21)             92.3924         estimate D2E/DX2                !
 ! A44   A(8,22,23)            146.035          estimate D2E/DX2                !
 ! A45   A(21,22,23)           120.0            estimate D2E/DX2                !
 ! A46   A(21,22,24)           120.0            estimate D2E/DX2                !
 ! A47   A(23,22,24)           120.0            estimate D2E/DX2                !
 ! A48   A(4,24,8)             146.2151         estimate D2E/DX2                !
 ! A49   A(4,24,22)            109.0318         estimate D2E/DX2                !
 ! A50   A(7,24,22)             81.469          estimate D2E/DX2                !
 ! D1    D(2,1,4,5)            180.0            estimate D2E/DX2                !
 ! D2    D(2,1,4,6)            -60.0            estimate D2E/DX2                !
 ! D3    D(2,1,4,7)             60.0            estimate D2E/DX2                !
 ! D4    D(2,1,4,24)            78.9557         estimate D2E/DX2                !
 ! D5    D(3,1,4,5)            -60.0            estimate D2E/DX2                !
 ! D6    D(3,1,4,6)             60.0            estimate D2E/DX2                !
 ! D7    D(3,1,4,7)            180.0            estimate D2E/DX2                !
 ! D8    D(3,1,4,24)          -161.0443         estimate D2E/DX2                !
 ! D9    D(17,1,4,5)            60.0            estimate D2E/DX2                !
 ! D10   D(17,1,4,6)           180.0            estimate D2E/DX2                !
 ! D11   D(17,1,4,7)           -60.0            estimate D2E/DX2                !
 ! D12   D(17,1,4,24)          -41.0443         estimate D2E/DX2                !
 ! D13   D(2,1,17,18)          -60.0            estimate D2E/DX2                !
 ! D14   D(2,1,17,19)           60.0            estimate D2E/DX2                !
 ! D15   D(2,1,17,20)          180.0            estimate D2E/DX2                !
 ! D16   D(3,1,17,18)          180.0            estimate D2E/DX2                !
 ! D17   D(3,1,17,19)          -60.0            estimate D2E/DX2                !
 ! D18   D(3,1,17,20)           60.0            estimate D2E/DX2                !
 ! D19   D(4,1,17,18)           60.0            estimate D2E/DX2                !
 ! D20   D(4,1,17,19)          180.0            estimate D2E/DX2                !
 ! D21   D(4,1,17,20)          -60.0            estimate D2E/DX2                !
 ! D22   D(1,4,7,8)             60.0            estimate D2E/DX2                !
 ! D23   D(1,4,7,9)            -60.0            estimate D2E/DX2                !
 ! D24   D(1,4,7,10)           180.0            estimate D2E/DX2                !
 ! D25   D(5,4,7,8)            -60.0            estimate D2E/DX2                !
 ! D26   D(5,4,7,9)            180.0            estimate D2E/DX2                !
 ! D27   D(5,4,7,10)            60.0            estimate D2E/DX2                !
 ! D28   D(6,4,7,8)            180.0            estimate D2E/DX2                !
 ! D29   D(6,4,7,9)             60.0            estimate D2E/DX2                !
 ! D30   D(6,4,7,10)           -60.0            estimate D2E/DX2                !
 ! D31   D(1,4,24,8)           149.2848         estimate D2E/DX2                !
 ! D32   D(1,4,24,22)          142.6983         estimate D2E/DX2                !
 ! D33   D(5,4,24,8)            40.2984         estimate D2E/DX2                !
 ! D34   D(5,4,24,22)           33.7119         estimate D2E/DX2                !
 ! D35   D(6,4,24,8)           -96.5805         estimate D2E/DX2                !
 ! D36   D(6,4,24,22)         -103.167          estimate D2E/DX2                !
 ! D37   D(4,7,8,22)            86.0082         estimate D2E/DX2                !
 ! D38   D(9,7,8,22)          -153.9918         estimate D2E/DX2                !
 ! D39   D(10,7,8,22)          -33.9918         estimate D2E/DX2                !
 ! D40   D(4,7,10,11)           60.0            estimate D2E/DX2                !
 ! D41   D(4,7,10,12)          -60.0            estimate D2E/DX2                !
 ! D42   D(4,7,10,13)          180.0            estimate D2E/DX2                !
 ! D43   D(8,7,10,11)          180.0            estimate D2E/DX2                !
 ! D44   D(8,7,10,12)           60.0            estimate D2E/DX2                !
 ! D45   D(8,7,10,13)          -60.0            estimate D2E/DX2                !
 ! D46   D(9,7,10,11)          -60.0            estimate D2E/DX2                !
 ! D47   D(9,7,10,12)          180.0            estimate D2E/DX2                !
 ! D48   D(9,7,10,13)           60.0            estimate D2E/DX2                !
 ! D49   D(24,7,10,11)         151.8712         estimate D2E/DX2                !
 ! D50   D(24,7,10,12)          31.8712         estimate D2E/DX2                !
 ! D51   D(24,7,10,13)         -88.1288         estimate D2E/DX2                !
 ! D52   D(9,7,24,22)         -140.1783         estimate D2E/DX2                !
 ! D53   D(10,7,24,22)           8.9884         estimate D2E/DX2                !
 ! D54   D(7,8,22,21)          114.3922         estimate D2E/DX2                !
 ! D55   D(7,8,22,23)          -82.3201         estimate D2E/DX2                !
 ! D56   D(7,10,13,14)         180.0            estimate D2E/DX2                !
 ! D57   D(7,10,13,15)         -60.0            estimate D2E/DX2                !
 ! D58   D(7,10,13,16)          60.0            estimate D2E/DX2                !
 ! D59   D(11,10,13,14)        -60.0            estimate D2E/DX2                !
 ! D60   D(11,10,13,15)         60.0            estimate D2E/DX2                !
 ! D61   D(11,10,13,16)       -180.0            estimate D2E/DX2                !
 ! D62   D(12,10,13,14)         60.0            estimate D2E/DX2                !
 ! D63   D(12,10,13,15)        180.0            estimate D2E/DX2                !
 ! D64   D(12,10,13,16)        -60.0            estimate D2E/DX2                !
 ! D65   D(21,22,24,4)         151.8116         estimate D2E/DX2                !
 ! D66   D(21,22,24,7)          82.4589         estimate D2E/DX2                !
 ! D67   D(23,22,24,4)         -28.1884         estimate D2E/DX2                !
 ! D68   D(23,22,24,7)         -97.5412         estimate D2E/DX2                !
 --------------------------------------------------------------------------------
 Trust Radius=3.00D-01 FncErr=1.00D-07 GrdErr=1.00D-06
 Number of steps in this run= 144 maximum allowed number of steps= 144.
 GradGradGradGradGradGradGradGradGradGradGradGradGradGradGradGradGradGrad

                          Input orientation:                          
 ---------------------------------------------------------------------
 Center     Atomic      Atomic             Coordinates (Angstroms)
 Number     Number       Type             X           Y           Z
 ---------------------------------------------------------------------
      1          6           0       -2.131144   -0.800188    0.115872
      2          1           0       -1.891444   -1.813798    0.360899
      3          1           0       -3.193532   -0.690643    0.050811
      4          6           0       -1.584671    0.135469    1.210181
      5          1           0       -1.824372    1.149079    0.965155
      6          1           0       -2.027664   -0.118496    2.150478
      7          6           0       -0.055627   -0.022195    1.303821
      8          1           0        0.387366    0.231771    0.363524
      9          1           0        0.184074   -1.035805    1.548847
     10          6           0        0.490846    0.913462    2.398130
     11          1           0        0.047853    0.659497    3.338427
     12          1           0        0.251145    1.927073    2.153103
     13          7           0        1.950388    0.762965    2.487513
     14          1           0        2.305241    1.370535    3.198103
     15          1           0        2.174407   -0.184334    2.716510
     16          1           0        2.364400    1.000316    1.608731
     17          6           0       -1.493565   -0.434668   -1.237452
     18          1           0       -0.431178   -0.544214   -1.172391
     19          1           0       -1.873258   -1.084768   -1.997784
     20          1           0       -1.733266    0.578942   -1.482479
     21          8           0        1.678827    1.046368    0.546236
     22          6           0        0.420430    1.043790    0.545950
     23          1           0       -0.116473    1.968791    0.577702
     24          8           0       -0.206529   -0.046658    0.508321
 ---------------------------------------------------------------------
                    Distance matrix (angstroms):
                    1          2          3          4          5
     1  C    0.000000
     2  H    1.070000   0.000000
     3  H    1.070000   1.747303   0.000000
     4  C    1.540000   2.148263   2.148263   0.000000
     5  H    2.148263   3.024610   2.468846   1.070000   0.000000
     6  H    2.148263   2.468846   2.468846   1.070000   1.747303
     7  C    2.514809   2.732978   3.444314   1.540000   2.148263
     8  H    2.732978   3.062243   3.710993   2.148263   2.468846
     9  H    2.732978   2.514809   3.710993   2.148263   3.024610
    10  C    3.875582   4.154945   4.653783   2.514809   2.732978
    11  H    4.154945   4.329403   4.810184   2.732978   3.062243
    12  H    4.154945   4.668704   4.810184   2.732978   2.514809
    13  N    4.972628   5.091352   5.874555   3.810770   4.088455
    14  H    5.821830   5.983466   6.662612   4.539673   4.699872
    15  H    5.067580   4.973450   6.014737   4.062261   4.564588
    16  H    5.067580   5.252479   6.014737   4.062261   4.240535
    17  C    1.540000   2.148263   2.148263   2.514809   2.732978
    18  H    2.148263   2.468846   3.024610   2.732978   3.062243
    19  H    2.148263   2.468846   2.468846   3.444314   3.710993
    20  H    2.148263   3.024610   2.468846   2.732978   2.514809
    21  O    4.255686   4.578399   5.196396   3.452677   3.529652
    22  C    3.177382   3.680328   4.039077   2.299278   2.286034
    23  H    3.455348   4.183958   4.101035   2.432428   1.933640
    24  O    2.103799   2.446110   3.089695   1.557258   2.062983
                    6          7          8          9         10
     6  H    0.000000
     7  C    2.148263   0.000000
     8  H    3.024610   1.070000   0.000000
     9  H    2.468846   1.070000   1.747303   0.000000
    10  C    2.732978   1.540000   2.148263   2.148263   0.000000
    11  H    2.514809   2.148263   3.024610   2.468846   1.070000
    12  H    3.062243   2.148263   2.468846   3.024610   1.070000
    13  N    4.088455   2.457987   2.690081   2.690081   1.470000
    14  H    4.699872   3.331921   3.606919   3.606919   2.034920
    15  H    4.240535   2.644813   2.983823   2.459648   2.034920
    16  H    4.564588   2.644813   2.459648   2.983823   2.034920
    17  C    3.444314   2.948875   2.558352   3.307461   4.355778
    18  H    3.710993   2.558352   1.905571   2.832902   3.965295
    19  H    4.262112   3.915793   3.524126   4.100439   5.376427
    20  H    3.710993   3.307461   2.832902   3.933514   4.485276
    21  O    4.203401   2.173498   1.537798   2.752265   2.204195
    22  C    3.149379   1.391877   0.832916   2.320858   1.858094
    23  H    3.237753   2.120136   1.821254   3.171916   2.190094
    24  O    2.453238   0.810055   0.671715   1.487843   2.231488
                   11         12         13         14         15
    11  H    0.000000
    12  H    1.747303   0.000000
    13  N    2.086720   2.086720   0.000000
    14  H    2.370879   2.370879   1.000000   0.000000
    15  H    2.370879   2.911082   1.000000   1.632993   0.000000
    16  H    2.911082   2.370879   1.000000   1.632993   1.632993
    17  C    4.950943   4.485276   5.212533   6.112596   5.399120
    18  H    4.693172   4.199016   4.558011   5.500497   4.694905
    19  H    5.933655   5.551048   6.176752   7.105322   6.278450
    20  H    5.140039   4.355778   5.418856   6.232495   5.786536
    21  O    3.256697   2.322916   1.980560   2.744062   2.543681
    22  C    2.843312   1.841680   2.487830   3.270044   3.048943
    23  H    3.059878   1.618263   3.061586   3.617888   3.802444
    24  O    2.927945   2.609672   3.037265   3.943647   3.250217
                   16         17         18         19         20
    16  H    0.000000
    17  C    5.004381   0.000000
    18  H    4.235029   1.070000   0.000000
    19  H    5.942413   1.070000   1.747303   0.000000
    20  H    5.150146   1.070000   1.747303   1.747303   0.000000
    21  O    1.265317   3.929260   3.152102   4.861181   3.997067
    22  C    2.215945   3.004952   2.489917   4.032659   2.994831
    23  H    2.855818   3.311764   3.078483   4.363902   2.964801
    24  O    2.986090   2.203347   1.767151   3.183743   2.585650
                   21         22         23         24
    21  O    0.000000
    22  C    1.258400   0.000000
    23  H    2.018653   1.070000   0.000000
    24  O    2.179613   1.258400   2.018653   0.000000
 Stoichiometry    C6H15NO2
 Framework group  C1[X(C6H15NO2)]
 Deg. of freedom    66
 Full point group                 C1      NOp   1
 Largest Abelian subgroup         C1      NOp   1
 Largest concise Abelian subgroup C1      NOp   1
                         Standard orientation:                         
 ---------------------------------------------------------------------
 Center     Atomic      Atomic             Coordinates (Angstroms)
 Number     Number       Type             X           Y           Z
 ---------------------------------------------------------------------
      1          6           0       -2.365696   -0.590774   -0.241729
      2          1           0       -2.380239   -0.828623   -1.284857
      3          1           0       -3.185502   -1.075415    0.246061
      4          6           0       -1.041224   -1.075283    0.376837
      5          1           0       -1.026680   -0.837433    1.419966
      6          1           0       -0.955324   -2.134413    0.251284
      7          6           0        0.138685   -0.377761   -0.325216
      8          1           0        0.052785    0.681370   -0.199662
      9          1           0        0.124142   -0.615611   -1.368344
     10          6           0        1.463157   -0.862270    0.293351
     11          1           0        1.549057   -1.921400    0.167797
     12          1           0        1.477701   -0.624420    1.336479
     13          7           0        2.589433   -0.196454   -0.376792
     14          1           0        3.449480   -0.511070    0.024875
     15          1           0        2.575841   -0.418743   -1.351678
     16          1           0        2.509153    0.793388   -0.259451
     17          6           0       -2.489327    0.933582   -0.061026
     18          1           0       -1.669521    1.418224   -0.548816
     19          1           0       -3.409577    1.270222   -0.490809
     20          1           0       -2.474784    1.171432    0.982102
     21          8           0        1.417000    1.331563    0.084926
     22          6           0        0.444234    0.672553    0.535483
     23          1           0        0.350700    0.509151    1.588788
     24          8           0       -0.418530    0.205716   -0.252725
 ---------------------------------------------------------------------
 Rotational constants (GHZ):      4.3074354      1.2480322      1.0694751
 Standard basis: 6-311+G(d) (5D, 7F)
 There are   243 symmetry adapted basis functions of A   symmetry.
 Integral buffers will be    131072 words long.
 Raffenetti 2 integral format.
 Two-electron integral symmetry is turned on.
   243 basis functions,   399 primitive gaussians,   252 cartesian basis functions
    37 alpha electrons       37 beta electrons
       nuclear repulsion energy       607.5934139691 Hartrees.
 NAtoms=   24 NActive=   24 NUniq=   24 SFac= 7.50D-01 NAtFMM=   80 NAOKFM=F Big=F
 One-electron integrals computed using PRISM.
 NBasis=   243 RedAO= T  NBF=   243
 NBsUse=   243 1.00D-06 NBFU=   243
 Harris functional with IExCor= 1009 diagonalized for initial guess.
 ExpMin= 4.38D-02 ExpMax= 8.59D+03 ExpMxC= 1.30D+03 IAcc=2 IRadAn=         0 AccDes= 0.00D+00
 HarFok:  IExCor= 1009 AccDes= 0.00D+00 IRadAn=         0 IDoV= 1
 ScaDFX=  1.000000  1.000000  1.000000  1.000000
 FoFCou: FMM=F IPFlag=           0 FMFlag=      100000 FMFlg1=           0
         NFxFlg=           0 DoJE=T BraDBF=F KetDBF=T FulRan=T
         Omega=  0.000000  0.000000  1.000000  0.000000  0.000000 ICntrl=     500 IOpCl=  0
         NMat0=    1 NMatS0=    1 NMatT0=    0 NMatD0=    1 NMtDS0=    0 NMtDT0=    0
         I1Cent=           4 NGrid=           0.
 Petite list used in FoFCou.
 Initial guess orbital symmetries:
       Occupied  (A) (A) (A) (A) (A) (A) (A) (A) (A) (A) (A) (A)
                 (A) (A) (A) (A) (A) (A) (A) (A) (A) (A) (A) (A)
                 (A) (A) (A) (A) (A) (A) (A) (A) (A) (A) (A) (A)
                 (A)
       Virtual   (A) (A) (A) (A) (A) (A) (A) (A) (A) (A) (A) (A)
                 (A) (A) (A) (A) (A) (A) (A) (A) (A) (A) (A) (A)
                 (A) (A) (A) (A) (A) (A) (A) (A) (A) (A) (A) (A)
                 (A) (A) (A) (A) (A) (A) (A) (A) (A) (A) (A) (A)
                 (A) (A) (A) (A) (A) (A) (A) (A) (A) (A) (A) (A)
                 (A) (A) (A) (A) (A) (A) (A) (A) (A) (A) (A) (A)
                 (A) (A) (A) (A) (A) (A) (A) (A) (A) (A) (A) (A)
                 (A) (A) (A) (A) (A) (A) (A) (A) (A) (A) (A) (A)
                 (A) (A) (A) (A) (A) (A) (A) (A) (A) (A) (A) (A)
                 (A) (A) (A) (A) (A) (A) (A) (A) (A) (A) (A) (A)
                 (A) (A) (A) (A) (A) (A) (A) (A) (A) (A) (A) (A)
                 (A) (A) (A) (A) (A) (A) (A) (A) (A) (A) (A) (A)
                 (A) (A) (A) (A) (A) (A) (A) (A) (A) (A) (A) (A)
                 (A) (A) (A) (A) (A) (A) (A) (A) (A) (A) (A) (A)
                 (A) (A) (A) (A) (A) (A) (A) (A) (A) (A) (A) (A)
                 (A) (A) (A) (A) (A) (A) (A) (A) (A) (A) (A) (A)
                 (A) (A) (A) (A) (A) (A) (A) (A) (A) (A) (A) (A)
                 (A) (A)
 The electronic state of the initial guess is 1-A.
 Requested convergence on RMS density matrix=1.00D-08 within 128 cycles.
 Requested convergence on MAX density matrix=1.00D-06.
 Requested convergence on             energy=1.00D-06.
 No special actions if energy rises.
 Restarting incremental Fock formation.
 SCF Done:  E(RM062X) =  -440.361528022     A.U. after   25 cycles
             Convg  =    0.4978D-08             -V/T =  1.9783

 **********************************************************************

            Population analysis using the SCF density.

 **********************************************************************

 Orbital symmetries:
       Occupied  (A) (A) (A) (A) (A) (A) (A) (A) (A) (A) (A) (A)
                 (A) (A) (A) (A) (A) (A) (A) (A) (A) (A) (A) (A)
                 (A) (A) (A) (A) (A) (A) (A) (A) (A) (A) (A) (A)
                 (A)
       Virtual   (A) (A) (A) (A) (A) (A) (A) (A) (A) (A) (A) (A)
                 (A) (A) (A) (A) (A) (A) (A) (A) (A) (A) (A) (A)
                 (A) (A) (A) (A) (A) (A) (A) (A) (A) (A) (A) (A)
                 (A) (A) (A) (A) (A) (A) (A) (A) (A) (A) (A) (A)
                 (A) (A) (A) (A) (A) (A) (A) (A) (A) (A) (A) (A)
                 (A) (A) (A) (A) (A) (A) (A) (A) (A) (A) (A) (A)
                 (A) (A) (A) (A) (A) (A) (A) (A) (A) (A) (A) (A)
                 (A) (A) (A) (A) (A) (A) (A) (A) (A) (A) (A) (A)
                 (A) (A) (A) (A) (A) (A) (A) (A) (A) (A) (A) (A)
                 (A) (A) (A) (A) (A) (A) (A) (A) (A) (A) (A) (A)
                 (A) (A) (A) (A) (A) (A) (A) (A) (A) (A) (A) (A)
                 (A) (A) (A) (A) (A) (A) (A) (A) (A) (A) (A) (A)
                 (A) (A) (A) (A) (A) (A) (A) (A) (A) (A) (A) (A)
                 (A) (A) (A) (A) (A) (A) (A) (A) (A) (A) (A) (A)
                 (A) (A) (A) (A) (A) (A) (A) (A) (A) (A) (A) (A)
                 (A) (A) (A) (A) (A) (A) (A) (A) (A) (A) (A) (A)
                 (A) (A) (A) (A) (A) (A) (A) (A) (A) (A) (A) (A)
                 (A) (A)
 The electronic state is 1-A.
 Alpha  occ. eigenvalues --  -19.79207 -19.56352 -14.81975 -10.69658 -10.63919
 Alpha  occ. eigenvalues --  -10.57290 -10.52508 -10.51781 -10.50848  -1.90316
 Alpha  occ. eigenvalues --   -1.28044  -1.16798  -1.07560  -1.03764  -0.96215
 Alpha  occ. eigenvalues --   -0.87550  -0.81339  -0.75527  -0.71280  -0.69334
 Alpha  occ. eigenvalues --   -0.66088  -0.65288  -0.60916  -0.57869  -0.53292
 Alpha  occ. eigenvalues --   -0.52619  -0.49286  -0.47210  -0.46043  -0.43064
 Alpha  occ. eigenvalues --   -0.41588  -0.40104  -0.39801  -0.36612  -0.33714
 Alpha  occ. eigenvalues --   -0.24726  -0.11109
 Alpha virt. eigenvalues --   -0.00722   0.01562   0.02294   0.03427   0.04134
 Alpha virt. eigenvalues --    0.04715   0.05364   0.06183   0.06799   0.07474
 Alpha virt. eigenvalues --    0.08182   0.08673   0.09554   0.09961   0.11375
 Alpha virt. eigenvalues --    0.11919   0.12643   0.13044   0.13327   0.13425
 Alpha virt. eigenvalues --    0.14323   0.15091   0.16166   0.16387   0.17262
 Alpha virt. eigenvalues --    0.17587   0.18459   0.19204   0.20106   0.20475
 Alpha virt. eigenvalues --    0.21736   0.22178   0.22839   0.23364   0.24003
 Alpha virt. eigenvalues --    0.25543   0.25665   0.26198   0.27700   0.28192
 Alpha virt. eigenvalues --    0.29573   0.29625   0.30325   0.31014   0.31775
 Alpha virt. eigenvalues --    0.32253   0.33156   0.33547   0.34612   0.35300
 Alpha virt. eigenvalues --    0.35512   0.37433   0.38392   0.39047   0.40201
 Alpha virt. eigenvalues --    0.43062   0.44078   0.46075   0.46944   0.48808
 Alpha virt. eigenvalues --    0.50056   0.51504   0.52830   0.53572   0.54461
 Alpha virt. eigenvalues --    0.58456   0.58878   0.60963   0.62018   0.63293
 Alpha virt. eigenvalues --    0.64860   0.66320   0.67864   0.68952   0.69230
 Alpha virt. eigenvalues --    0.71563   0.73175   0.73639   0.73901   0.75208
 Alpha virt. eigenvalues --    0.76287   0.76684   0.77476   0.78236   0.80373
 Alpha virt. eigenvalues --    0.80692   0.81480   0.82968   0.83613   0.85410
 Alpha virt. eigenvalues --    0.86573   0.90201   0.94189   0.95963   1.00919
 Alpha virt. eigenvalues --    1.02562   1.04916   1.08230   1.10506   1.14748
 Alpha virt. eigenvalues --    1.15277   1.18590   1.21840   1.24161   1.27062
 Alpha virt. eigenvalues --    1.30961   1.32998   1.35101   1.36581   1.41301
 Alpha virt. eigenvalues --    1.43014   1.44883   1.49612   1.55746   1.59437
 Alpha virt. eigenvalues --    1.62973   1.63075   1.65130   1.68261   1.68591
 Alpha virt. eigenvalues --    1.70512   1.72726   1.75206   1.75705   1.77992
 Alpha virt. eigenvalues --    1.80347   1.83940   1.85406   1.88685   1.90293
 Alpha virt. eigenvalues --    1.93248   1.94487   2.01280   2.05572   2.05733
 Alpha virt. eigenvalues --    2.07805   2.10759   2.13748   2.17409   2.19247
 Alpha virt. eigenvalues --    2.20346   2.29450   2.36765   2.39068   2.53991
 Alpha virt. eigenvalues --    2.57509   2.61041   2.61751   2.62476   2.65673
 Alpha virt. eigenvalues --    2.67776   2.69805   2.71378   2.74560   2.75924
 Alpha virt. eigenvalues --    2.78755   2.82087   2.89167   2.90543   2.96076
 Alpha virt. eigenvalues --    2.99162   3.02999   3.06187   3.09295   3.11350
 Alpha virt. eigenvalues --    3.15582   3.19340   3.29085   3.31007   3.36328
 Alpha virt. eigenvalues --    3.38046   3.40810   3.41912   3.47336   3.51640
 Alpha virt. eigenvalues --    3.53557   3.64447   3.67924   3.73261   3.79148
 Alpha virt. eigenvalues --    3.87152   3.89026   4.00243   4.03437   4.14265
 Alpha virt. eigenvalues --    4.18526   4.26235   4.34326   4.59165   4.70100
 Alpha virt. eigenvalues --    4.73853   5.33313   5.39742   5.55151   5.86823
 Alpha virt. eigenvalues --    6.23299   6.68249  23.68738  23.78312  23.84180
 Alpha virt. eigenvalues --   23.90085  24.15149  24.63327  35.50386  50.18837
 Alpha virt. eigenvalues --   50.82074
          Condensed to atoms (all electrons):
              1          2          3          4          5          6
     1  C    7.196389   0.399775   0.479315  -0.914292   0.014745  -0.052521
     2  H    0.399775   0.398778  -0.025512   0.008722   0.001417  -0.000738
     3  H    0.479315  -0.025512   0.425194  -0.133857   0.000176  -0.006621
     4  C   -0.914292   0.008722  -0.133857   9.516821   0.409536   0.351355
     5  H    0.014745   0.001417   0.000176   0.409536   0.384185  -0.021593
     6  H   -0.052521  -0.000738  -0.006621   0.351355  -0.021593   0.507487
     7  C   -2.154211   0.072356  -0.062266  -3.992880  -0.273400  -0.126364
     8  H    0.746776  -0.027415   0.008014   0.618370   0.063534  -0.058525
     9  H    0.070252  -0.001488   0.000283   0.008941   0.002592   0.010739
    10  C   -0.164199  -0.009510   0.007216   0.956795   0.033593  -0.048250
    11  H    0.018253  -0.000218   0.000136   0.158921   0.000946   0.003544
    12  H    0.009135   0.000040  -0.000067  -0.143405  -0.000734   0.000157
    13  N    0.013975  -0.001192   0.000456  -0.043366  -0.003264  -0.004556
    14  H   -0.000844  -0.000004   0.000001  -0.008179  -0.000089   0.000003
    15  H    0.004424   0.000006  -0.000001   0.014360   0.000158   0.000236
    16  H    0.015298  -0.000135   0.000025   0.070516   0.000975  -0.000161
    17  C   -0.081265  -0.065240  -0.002453   0.051322  -0.015434   0.029393
    18  H    0.071850  -0.006179   0.005121  -0.080202   0.004417  -0.002313
    19  H   -0.082808  -0.000663  -0.006273   0.054953  -0.001006   0.000153
    20  H   -0.009163   0.003045  -0.003555  -0.019090   0.002465  -0.000237
    21  O   -0.131818   0.002534  -0.000483  -0.261912  -0.005439   0.003197
    22  C    1.876254  -0.065710   0.044125   0.859067   0.112522   0.052609
    23  H   -0.014803  -0.000229   0.000538   0.063138  -0.009954  -0.004002
    24  O   -0.768404   0.025040   0.000523  -0.790145  -0.001257   0.142540
              7          8          9         10         11         12
     1  C   -2.154211   0.746776   0.070252  -0.164199   0.018253   0.009135
     2  H    0.072356  -0.027415  -0.001488  -0.009510  -0.000218   0.000040
     3  H   -0.062266   0.008014   0.000283   0.007216   0.000136  -0.000067
     4  C   -3.992880   0.618370   0.008941   0.956795   0.158921  -0.143405
     5  H   -0.273400   0.063534   0.002592   0.033593   0.000946  -0.000734
     6  H   -0.126364  -0.058525   0.010739  -0.048250   0.003544   0.000157
     7  C   42.184215  -3.300828   0.067162  -3.151973  -0.814058   0.429726
     8  H   -3.300828   6.620167  -0.008679   0.318214   0.000879   0.005443
     9  H    0.067162  -0.008679   0.594596  -0.089672   0.008711   0.002822
    10  C   -3.151973   0.318214  -0.089672   9.055318   0.583270   0.324876
    11  H   -0.814058   0.000879   0.008711   0.583270   0.443075  -0.034032
    12  H    0.429726   0.005443   0.002822   0.324876  -0.034032   0.431024
    13  N    0.333163   0.205844   0.015181  -0.504880  -0.077990   0.016722
    14  H    0.081505  -0.012540  -0.002496  -0.022229  -0.003223  -0.006809
    15  H   -0.113115   0.006771   0.008985   0.028606   0.004444   0.001160
    16  H   -0.733059   0.130932   0.000885   0.112176   0.010340  -0.015215
    17  C   -0.072100  -0.078147   0.006430   0.020613   0.003003  -0.002570
    18  H   -0.109657   0.140042   0.000485  -0.001103   0.000037  -0.000004
    19  H    0.040515  -0.014279  -0.000241  -0.000939  -0.000011   0.000012
    20  H   -0.079166   0.029171  -0.000309  -0.000191   0.000038  -0.000171
    21  O    2.638899  -0.667119  -0.041606  -0.287346  -0.021820   0.023713
    22  C  -18.808501   1.229188   0.422436  -0.512266   0.365819  -0.262592
    23  H   -0.075747  -0.039957  -0.007087  -0.028754   0.001779  -0.030728
    24  O   -6.389276  -5.244079  -0.208728   0.172692   0.089800  -0.041062
             13         14         15         16         17         18
     1  C    0.013975  -0.000844   0.004424   0.015298  -0.081265   0.071850
     2  H   -0.001192  -0.000004   0.000006  -0.000135  -0.065240  -0.006179
     3  H    0.000456   0.000001  -0.000001   0.000025  -0.002453   0.005121
     4  C   -0.043366  -0.008179   0.014360   0.070516   0.051322  -0.080202
     5  H   -0.003264  -0.000089   0.000158   0.000975  -0.015434   0.004417
     6  H   -0.004556   0.000003   0.000236  -0.000161   0.029393  -0.002313
     7  C    0.333163   0.081505  -0.113115  -0.733059  -0.072100  -0.109657
     8  H    0.205844  -0.012540   0.006771   0.130932  -0.078147   0.140042
     9  H    0.015181  -0.002496   0.008985   0.000885   0.006430   0.000485
    10  C   -0.504880  -0.022229   0.028606   0.112176   0.020613  -0.001103
    11  H   -0.077990  -0.003223   0.004444   0.010340   0.003003   0.000037
    12  H    0.016722  -0.006809   0.001160  -0.015215  -0.002570  -0.000004
    13  N    7.893383   0.264288   0.300508   0.145779  -0.000921   0.003157
    14  H    0.264288   0.371563  -0.024609  -0.016475  -0.000316   0.000011
    15  H    0.300508  -0.024609   0.294351  -0.009685  -0.000033   0.000007
    16  H    0.145779  -0.016475  -0.009685   0.277825  -0.001220   0.001330
    17  C   -0.000921  -0.000316  -0.000033  -0.001220   6.061824   0.370063
    18  H    0.003157   0.000011   0.000007   0.001330   0.370063   0.485008
    19  H   -0.000209   0.000000  -0.000002  -0.000034   0.378193  -0.041751
    20  H    0.000273  -0.000001   0.000001   0.000134   0.413594  -0.022446
    21  O   -0.277939   0.015383  -0.021308  -0.158950   0.016485  -0.011733
    22  C   -0.103818  -0.055827   0.065393   0.553320  -0.120951   0.121622
    23  H    0.005632   0.001585  -0.000946   0.004298  -0.000734   0.003911
    24  O   -0.235193   0.016959   0.002154   0.021247  -0.027896  -0.199126
             19         20         21         22         23         24
     1  C   -0.082808  -0.009163  -0.131818   1.876254  -0.014803  -0.768404
     2  H   -0.000663   0.003045   0.002534  -0.065710  -0.000229   0.025040
     3  H   -0.006273  -0.003555  -0.000483   0.044125   0.000538   0.000523
     4  C    0.054953  -0.019090  -0.261912   0.859067   0.063138  -0.790145
     5  H   -0.001006   0.002465  -0.005439   0.112522  -0.009954  -0.001257
     6  H    0.000153  -0.000237   0.003197   0.052609  -0.004002   0.142540
     7  C    0.040515  -0.079166   2.638899 -18.808501  -0.075747  -6.389276
     8  H   -0.014279   0.029171  -0.667119   1.229188  -0.039957  -5.244079
     9  H   -0.000241  -0.000309  -0.041606   0.422436  -0.007087  -0.208728
    10  C   -0.000939  -0.000191  -0.287346  -0.512266  -0.028754   0.172692
    11  H   -0.000011   0.000038  -0.021820   0.365819   0.001779   0.089800
    12  H    0.000012  -0.000171   0.023713  -0.262592  -0.030728  -0.041062
    13  N   -0.000209   0.000273  -0.277939  -0.103818   0.005632  -0.235193
    14  H    0.000000  -0.000001   0.015383  -0.055827   0.001585   0.016959
    15  H   -0.000002   0.000001  -0.021308   0.065393  -0.000946   0.002154
    16  H   -0.000034   0.000134  -0.158950   0.553320   0.004298   0.021247
    17  C    0.378193   0.413594   0.016485  -0.120951  -0.000734  -0.027896
    18  H   -0.041751  -0.022446  -0.011733   0.121622   0.003911  -0.199126
    19  H    0.429631  -0.023162   0.000260  -0.022207  -0.000204   0.023770
    20  H   -0.023162   0.429043  -0.000560   0.026388   0.000756  -0.023331
    21  O    0.000260  -0.000560   9.439806  -1.914131  -0.073902   0.085664
    22  C   -0.022207   0.026388  -1.914131  21.186568   0.421734   1.783246
    23  H   -0.000204   0.000756  -0.073902   0.421734   0.464570   0.026277
    24  O    0.023770  -0.023331   0.085664   1.783246   0.026277  19.067345
 Mulliken atomic charges:
              1
     1  C   -0.542113
     2  H    0.292523
     3  H    0.269965
     4  C   -0.755489
     5  H    0.300909
     6  H    0.224468
     7  C    0.409060
     8  H    0.328222
     9  H    0.139806
    10  C   -0.792057
    11  H    0.258358
    12  H    0.292559
    13  N   -0.945033
    14  H    0.402341
    15  H    0.438134
    16  H    0.589853
    17  C   -0.881638
    18  H    0.267453
    19  H    0.266302
    20  H    0.276473
    21  O   -0.349874
    22  C   -1.254288
    23  H    0.292828
    24  O    0.471239
 Sum of Mulliken atomic charges =   0.00000
 Mulliken charges with hydrogens summed into heavy atoms:
              1
     1  C    0.020375
     4  C   -0.230112
     7  C    0.548866
    10  C   -0.241141
    13  N    0.485295
    17  C   -0.071411
    21  O   -0.349874
    22  C   -0.961460
    24  O    0.799461
 Sum of Mulliken charges with hydrogens summed into heavy atoms =   0.00000
 Electronic spatial extent (au):  <R**2>=           1197.1977
 Charge=              0.0000 electrons
 Dipole moment (field-independent basis, Debye):
    X=              3.1985    Y=             -1.3211    Z=              1.2523  Tot=              3.6802
 Quadrupole moment (field-independent basis, Debye-Ang):
   XX=            -44.9615   YY=            -71.3901   ZZ=            -61.5319
   XY=             -3.8055   XZ=             -1.0777   YZ=             -1.3509
 Traceless Quadrupole moment (field-independent basis, Debye-Ang):
   XX=             14.3330   YY=            -12.0956   ZZ=             -2.2374
   XY=             -3.8055   XZ=             -1.0777   YZ=             -1.3509
 Octapole moment (field-independent basis, Debye-Ang**2):
  XXX=             59.6922  YYY=              7.5616  ZZZ=             15.7589  XYY=             -2.1060
  XXY=             -3.3279  XXZ=             -6.5658  XZZ=              8.1723  YZZ=              4.2496
  YYZ=             -0.2047  XYZ=             -0.5402
 Hexadecapole moment (field-independent basis, Debye-Ang**3):
 XXXX=           -933.3359 YYYY=           -415.2938 ZZZZ=           -202.5304 XXXY=             -2.5734
 XXXZ=            -14.0707 YYYX=              1.3930 YYYZ=             -5.5579 ZZZX=             -0.4879
 ZZZY=             -5.4543 XXYY=           -265.6457 XXZZ=           -204.5065 YYZZ=           -102.4580
 XXYZ=             -1.3555 YYXZ=              2.9068 ZZXY=              1.3506
 N-N= 6.075934139691D+02 E-N=-2.247521093597D+03  KE= 4.501391778076D+02
 Calling FoFJK, ICntrl=      2127 FMM=F ISym2X=0 I1Cent= 0 IOpClX= 0 NMat=1 NMatS=1 NMatT=0.
 ***** Axes restored to original set *****
 -------------------------------------------------------------------
 Center     Atomic                   Forces (Hartrees/Bohr)
 Number     Number              X              Y              Z
 -------------------------------------------------------------------
      1        6           0.013070530    0.013340063   -0.008233366
      2        1           0.000212174   -0.016877621    0.004083184
      3        1          -0.014891993    0.001815263    0.001798835
      4        6          -0.251793699   -0.012113209    0.201336266
      5        1           0.003367244    0.012655865    0.000077493
      6        1          -0.042863502    0.002844581    0.019253876
      7        6           0.231844811   -0.039236601    3.337059291
      8        1           0.884984577   -0.111655713   -0.577041625
      9        1           0.048756051   -0.093571049    0.090596457
     10        6           0.023947075    0.001004424    0.134202587
     11        1          -0.003812186   -0.008713896    0.037408848
     12        1           0.001564596    0.009107215    0.032475306
     13        7           0.002694148   -0.011550854    0.150962421
     14        1           0.010324313    0.002906764    0.025738550
     15        1           0.004082900   -0.019066939    0.007332120
     16        1           0.008454041    0.008133753   -0.032208726
     17        6          -0.026551981   -0.018120648   -0.003681621
     18        1           0.003713717   -0.008729299   -0.027676322
     19        1          -0.005084701   -0.006475840   -0.013288040
     20        1          -0.002160870    0.014276423   -0.006992952
     21        8           0.075157581    0.005884658   -0.149792292
     22        6           0.072355997    0.773959666   -0.120604113
     23        1          -0.018573627   -0.013942018   -0.021862682
     24        8          -1.018797196   -0.485874988   -3.080943495
 -------------------------------------------------------------------
 Cartesian Forces:  Max     3.337059291 RMS     0.576263822

 GradGradGradGradGradGradGradGradGradGradGradGradGradGradGradGradGradGrad
 Berny optimization.
 Internal  Forces:  Max     1.465164294 RMS     0.213534324
 Search for a local minimum.
 Step number   1 out of a maximum of  144
 All quantities printed in internal units (Hartrees-Bohrs-Radians)
 Mixed Optimization -- RFO/linear search
 Second derivative matrix not updated -- first step.
     Eigenvalues ---    0.00237   0.00237   0.00457   0.00556   0.00802
     Eigenvalues ---    0.02755   0.03328   0.03423   0.03615   0.03700
     Eigenvalues ---    0.03919   0.04345   0.04401   0.04562   0.04664
     Eigenvalues ---    0.05720   0.05720   0.05727   0.06065   0.06264
     Eigenvalues ---    0.07203   0.07374   0.07400   0.07782   0.08668
     Eigenvalues ---    0.09788   0.11168   0.11279   0.11842   0.15354
     Eigenvalues ---    0.16000   0.16000   0.16000   0.16000   0.16000
     Eigenvalues ---    0.17442   0.18044   0.19136   0.20745   0.21037
     Eigenvalues ---    0.21928   0.23078   0.26978   0.28046   0.28519
     Eigenvalues ---    0.28519   0.30600   0.35259   0.37230   0.37230
     Eigenvalues ---    0.37230   0.37230   0.37230   0.37230   0.37230
     Eigenvalues ---    0.37230   0.37230   0.37230   0.37230   0.47076
     Eigenvalues ---    0.47688   0.47688   0.78840   0.84037   1.20665
     Eigenvalues ---    7.048441000.000001000.000001000.000001000.00000
     Eigenvalues --- 1000.000001000.000001000.000001000.000001000.00000
     Eigenvalues --- 1000.000001000.000001000.000001000.000001000.00000
     Eigenvalues --- 1000.000001000.000001000.000001000.000001000.00000
     Eigenvalues --- 1000.000001000.000001000.000001000.000001000.00000
     Eigenvalues --- 1000.000001000.000001000.000001000.000001000.00000
     Eigenvalues --- 1000.000001000.000001000.000001000.000001000.00000
     Eigenvalues --- 1000.000001000.000001000.000001000.000001000.00000
     Eigenvalues --- 1000.000001000.000001000.000001000.000001000.00000
     Eigenvalues --- 1000.000001000.000001000.000001000.000001000.00000
     Eigenvalues --- 1000.000001000.000001000.000001000.000001000.00000
     Eigenvalues --- 1000.000001000.000001000.000001000.000001000.00000
     Eigenvalues --- 1000.000001000.000001000.000001000.000001000.00000
     Eigenvalues --- 1000.000001000.000001000.000001000.000001000.00000
     Eigenvalues --- 1000.000001000.000001000.000001000.000001000.00000
     Eigenvalues --- 1000.000001000.000001000.000001000.000001000.00000
 RFO step:  Lambda=-1.29446867D+00 EMin= 2.36824064D-03
 Linear search not attempted -- first point.
 Maximum step size (   0.300) exceeded in Quadratic search.
    -- Step size scaled by   0.449
 Iteration  1 RMS(Cart)=  0.05966206 RMS(Int)=  0.00229399
 Iteration  2 RMS(Cart)=  0.00268003 RMS(Int)=  0.00061937
 Iteration  3 RMS(Cart)=  0.00000873 RMS(Int)=  0.00061935
 Iteration  4 RMS(Cart)=  0.00000002 RMS(Int)=  0.00061935
 Variable       Old X    -DE/DX   Delta X   Delta X   Delta X     New X
                                 (Linear)    (Quad)   (Total)
    R1        2.02201   0.01696   0.00000   0.00457   0.00457   2.02658
    R2        2.02201   0.01488   0.00000   0.00401   0.00401   2.02602
    R3        2.91018   0.06220   0.00000   0.01769   0.01769   2.92787
    R4        2.91018   0.02831   0.00000   0.00805   0.00805   2.91823
    R5        2.02201   0.01123   0.00000   0.00303   0.00303   2.02503
    R6        2.02201   0.03399   0.00000   0.00916   0.00916   2.03117
    R7        2.91018   0.30285   0.00000   0.02376   0.02307   2.93325
    R8        2.94279   0.39049   0.00000   0.07990   0.08054   3.02334
    R9        2.02201   1.36830   0.00000   0.15690   0.15664   2.17865
   R10        2.02201   0.12031   0.00000   0.03243   0.03243   2.05443
   R11        2.91018   0.06864   0.00000   0.04080   0.03945   2.94962
   R12        1.53078   1.46516   0.00000   0.07752   0.07613   1.60692
   R13        1.57398   0.20435   0.00000   0.07001   0.06998   1.64397
   R14        1.26936   0.44784   0.00000   0.06812   0.06854   1.33790
   R15        2.02201   0.03650   0.00000   0.00984   0.00984   2.03185
   R16        2.02201   0.00085   0.00000   0.00023   0.00023   2.02224
   R17        2.77790  -0.11019   0.00000  -0.01424  -0.01509   2.76280
   R18        1.88973   0.02371   0.00000   0.00601   0.00601   1.89574
   R19        1.88973   0.02066   0.00000   0.00524   0.00524   1.89497
   R20        1.88973   0.16313   0.00000   0.02845   0.02967   1.91940
   R21        2.39110   0.24773   0.00000   0.04501   0.04681   2.43791
   R22        2.02201   0.00288   0.00000   0.00078   0.00078   2.02278
   R23        2.02201   0.01519   0.00000   0.00409   0.00409   2.02610
   R24        2.02201   0.01559   0.00000   0.00420   0.00420   2.02621
   R25        2.37803   0.20940   0.00000   0.03354   0.03428   2.41231
   R26        2.02201  -0.00340   0.00000  -0.00092  -0.00092   2.02109
   R27        2.37803   0.63410   0.00000   0.10112   0.10118   2.47922
    A1        1.91063   0.02133   0.00000   0.00583   0.00567   1.91630
    A2        1.91063  -0.03034   0.00000  -0.00866  -0.00871   1.90192
    A3        1.91063  -0.03032   0.00000  -0.00859  -0.00864   1.90199
    A4        1.91063  -0.04323   0.00000  -0.01302  -0.01294   1.89769
    A5        1.91063  -0.04551   0.00000  -0.01372  -0.01364   1.89699
    A6        1.91063   0.12806   0.00000   0.03817   0.03824   1.94887
    A7        1.91063  -0.05327   0.00000  -0.00635  -0.00631   1.90433
    A8        1.91063  -0.02419   0.00000  -0.00826  -0.00855   1.90208
    A9        1.91063   0.29285   0.00000   0.02202   0.02168   1.93231
   A10        1.49343  -0.09926   0.00000   0.01345   0.01401   1.50744
   A11        1.91063   0.02758   0.00000   0.00041   0.00045   1.91108
   A12        1.91063  -0.04048   0.00000   0.00375   0.00350   1.91413
   A13        1.77811  -0.11118   0.00000  -0.00862  -0.00852   1.76959
   A14        1.91063  -0.20250   0.00000  -0.01157  -0.01085   1.89978
   A15        2.39603   0.19733   0.00000   0.00838   0.00801   2.40403
   A16        1.91063  -0.44226   0.00000   0.01217   0.01240   1.92304
   A17        1.91063   0.10470   0.00000   0.00704   0.00694   1.91757
   A18        1.91063   0.13091   0.00000  -0.02230  -0.02218   1.88845
   A19        1.91063   0.03486   0.00000  -0.00629  -0.00616   1.90447
   A20        1.91063   0.28118   0.00000   0.02739   0.02636   1.93699
   A21        1.91063  -0.10939   0.00000  -0.01801  -0.01758   1.89305
   A22        1.81111   0.01430   0.00000   0.01452   0.01411   1.82522
   A23        2.46910   0.09362   0.00000   0.00312   0.00294   2.47205
   A24        1.62618   0.02733   0.00000   0.02271   0.02188   1.64806
   A25        1.91063   0.09042   0.00000   0.01074   0.01175   1.92238
   A26        1.91063   0.08672   0.00000   0.01298   0.01369   1.92432
   A27        1.91063  -0.27698   0.00000  -0.03059  -0.03366   1.87698
   A28        1.91063  -0.05481   0.00000  -0.00715  -0.00783   1.90280
   A29        1.91063   0.11642   0.00000   0.01051   0.01208   1.92272
   A30        1.91063   0.03823   0.00000   0.00351   0.00400   1.91464
   A31        1.91063   0.06168   0.00000   0.01261   0.01293   1.92356
   A32        1.91063   0.03679   0.00000   0.00660   0.00669   1.91732
   A33        1.91063  -0.29129   0.00000  -0.05561  -0.05746   1.85318
   A34        1.91063  -0.00872   0.00000  -0.00194  -0.00204   1.90860
   A35        1.91063   0.11750   0.00000   0.02266   0.02347   1.93410
   A36        1.91063   0.08403   0.00000   0.01568   0.01598   1.92661
   A37        1.91063   0.03518   0.00000   0.01092   0.01091   1.92154
   A38        1.91063  -0.00452   0.00000  -0.00147  -0.00147   1.90916
   A39        1.91063   0.00062   0.00000   0.00022   0.00021   1.91084
   A40        1.91063  -0.01779   0.00000  -0.00554  -0.00554   1.90509
   A41        1.91063  -0.00965   0.00000  -0.00283  -0.00285   1.90779
   A42        1.91063  -0.00383   0.00000  -0.00129  -0.00129   1.90934
   A43        1.61255  -0.01252   0.00000  -0.00630  -0.00604   1.60651
   A44        2.54879   0.02603   0.00000  -0.00003  -0.00028   2.54851
   A45        2.09440   0.01216   0.00000   0.00312   0.00320   2.09759
   A46        2.09440   0.04401   0.00000   0.00441   0.00411   2.09851
   A47        2.09440  -0.05617   0.00000  -0.00752  -0.00734   2.08706
   A48        2.55193  -0.24024   0.00000   0.02387   0.02393   2.57587
   A49        1.90296  -0.05457   0.00000   0.01891   0.01948   1.92245
   A50        1.42190   0.06316   0.00000   0.05897   0.05757   1.47947
    D1        3.14159  -0.00209   0.00000   0.00712   0.00705  -3.13454
    D2       -1.04720  -0.01573   0.00000  -0.00132  -0.00135  -1.04855
    D3        1.04720  -0.09923   0.00000  -0.00707  -0.00673   1.04047
    D4        1.37804   0.14957   0.00000   0.01156   0.01126   1.38929
    D5       -1.04720  -0.02101   0.00000   0.00098   0.00096  -1.04624
    D6        1.04720  -0.03466   0.00000  -0.00746  -0.00745   1.03975
    D7        3.14159  -0.11815   0.00000  -0.01321  -0.01283   3.12877
    D8       -2.81075   0.13064   0.00000   0.00541   0.00516  -2.80559
    D9        1.04720  -0.02480   0.00000  -0.00043  -0.00050   1.04670
   D10        3.14159  -0.03844   0.00000  -0.00887  -0.00890   3.13269
   D11       -1.04720  -0.12194   0.00000  -0.01462  -0.01428  -1.06148
   D12       -0.71636   0.12686   0.00000   0.00401   0.00371  -0.71265
   D13       -1.04720  -0.00625   0.00000  -0.00194  -0.00192  -1.04911
   D14        1.04720  -0.00927   0.00000  -0.00294  -0.00292   1.04427
   D15       -3.14159  -0.01635   0.00000  -0.00530  -0.00528   3.13631
   D16        3.14159   0.01405   0.00000   0.00459   0.00455  -3.13704
   D17       -1.04720   0.01103   0.00000   0.00358   0.00354  -1.04366
   D18        1.04720   0.00396   0.00000   0.00123   0.00118   1.04838
   D19        1.04720   0.01644   0.00000   0.00557   0.00560   1.05279
   D20        3.14159   0.01342   0.00000   0.00456   0.00459  -3.13701
   D21       -1.04720   0.00634   0.00000   0.00221   0.00223  -1.04497
   D22        1.04720  -0.14867   0.00000   0.00293   0.00324   1.05043
   D23       -1.04720   0.01535   0.00000  -0.00113  -0.00123  -1.04842
   D24        3.14159   0.00504   0.00000   0.03027   0.02934  -3.11226
   D25       -1.04720  -0.23798   0.00000  -0.00507  -0.00472  -1.05192
   D26        3.14159  -0.07396   0.00000  -0.00913  -0.00918   3.13241
   D27        1.04720  -0.08426   0.00000   0.02227   0.02138   1.06858
   D28        3.14159  -0.12297   0.00000  -0.00079  -0.00076   3.14083
   D29        1.04720   0.04105   0.00000  -0.00485  -0.00523   1.04197
   D30       -1.04720   0.03075   0.00000   0.02655   0.02534  -1.02186
   D31        2.60551   0.25023   0.00000  -0.00030  -0.00014   2.60537
   D32        2.49056  -0.09744   0.00000  -0.02762  -0.02695   2.46360
   D33        0.70334   0.32303   0.00000   0.00347   0.00356   0.70690
   D34        0.58838  -0.02464   0.00000  -0.02384  -0.02326   0.56513
   D35       -1.68565   0.17793   0.00000   0.00593   0.00638  -1.67927
   D36       -1.80060  -0.16975   0.00000  -0.02138  -0.02044  -1.82104
   D37        1.50113   0.02136   0.00000  -0.02188  -0.02149   1.47964
   D38       -2.68766  -0.09990   0.00000  -0.00966  -0.00915  -2.69682
   D39       -0.59327  -0.04033   0.00000  -0.01879  -0.01845  -0.61172
   D40        1.04720   0.17016   0.00000  -0.00734  -0.00641   1.04079
   D41       -1.04720   0.12882   0.00000  -0.01310  -0.01269  -1.05989
   D42        3.14159   0.19851   0.00000  -0.00663  -0.00522   3.13638
   D43        3.14159  -0.11914   0.00000   0.01068   0.01106  -3.13054
   D44        1.04720  -0.16049   0.00000   0.00492   0.00477   1.05197
   D45       -1.04720  -0.09080   0.00000   0.01139   0.01225  -1.03495
   D46       -1.04720   0.02876   0.00000   0.00872   0.00858  -1.03861
   D47       -3.14159  -0.01259   0.00000   0.00295   0.00230  -3.13929
   D48        1.04720   0.05710   0.00000   0.00943   0.00978   1.05697
   D49        2.65065   0.05457   0.00000   0.00792   0.00830   2.65895
   D50        0.55626   0.01322   0.00000   0.00215   0.00201   0.55827
   D51       -1.53814   0.08291   0.00000   0.00863   0.00949  -1.52865
   D52       -2.44657   0.06387   0.00000   0.01956   0.01913  -2.42744
   D53        0.15688   0.01392   0.00000   0.01440   0.01364   0.17051
   D54        1.99652  -0.12561   0.00000   0.02402   0.02280   2.01932
   D55       -1.43676   0.00605   0.00000   0.00729   0.00707  -1.42969
   D56        3.14159  -0.04344   0.00000  -0.00509  -0.00560   3.13599
   D57       -1.04720   0.00619   0.00000   0.00430   0.00416  -1.04304
   D58        1.04720  -0.04674   0.00000  -0.00650  -0.00689   1.04031
   D59       -1.04720  -0.03101   0.00000  -0.00424  -0.00462  -1.05182
   D60        1.04720   0.01861   0.00000   0.00515   0.00513   1.05233
   D61        3.14159  -0.03432   0.00000  -0.00565  -0.00591   3.13568
   D62        1.04720  -0.00344   0.00000  -0.00441  -0.00428   1.04292
   D63        3.14159   0.04619   0.00000   0.00498   0.00547  -3.13612
   D64       -1.04720  -0.00674   0.00000  -0.00583  -0.00557  -1.05277
   D65        2.64961  -0.12948   0.00000  -0.01635  -0.01675   2.63286
   D66        1.43918   0.11450   0.00000   0.01129   0.00936   1.44854
   D67       -0.49198  -0.14888   0.00000  -0.02547  -0.02452  -0.51650
   D68       -1.70241   0.09509   0.00000   0.00216   0.00160  -1.70081
         Item               Value     Threshold  Converged?
 Maximum Force            1.465164     0.000450     NO 
 RMS     Force            0.213534     0.000300     NO 
 Maximum Displacement     0.196675     0.001800     NO 
 RMS     Displacement     0.060126     0.001200     NO 
 Predicted change in Energy=-5.103406D-01
 GradGradGradGradGradGradGradGradGradGradGradGradGradGradGradGradGradGrad

                          Input orientation:                          
 ---------------------------------------------------------------------
 Center     Atomic      Atomic             Coordinates (Angstroms)
 Number     Number       Type             X           Y           Z
 ---------------------------------------------------------------------
      1          6           0       -2.138105   -0.801332    0.116448
      2          1           0       -1.895885   -1.816581    0.362786
      3          1           0       -3.202796   -0.680402    0.081019
      4          6           0       -1.567501    0.132910    1.212862
      5          1           0       -1.814431    1.147598    0.972517
      6          1           0       -2.006536   -0.128823    2.158400
      7          6           0       -0.026242   -0.019342    1.316288
      8          1           0        0.468874    0.255525    0.312064
      9          1           0        0.227503   -1.045770    1.569225
     10          6           0        0.479823    0.911751    2.462277
     11          1           0        0.018417    0.636848    3.393728
     12          1           0        0.242198    1.931857    2.243007
     13          7           0        1.930304    0.751871    2.551868
     14          1           0        2.299669    1.339379    3.276283
     15          1           0        2.155794   -0.204450    2.752262
     16          1           0        2.301164    1.020337    1.645204
     17          6           0       -1.555824   -0.469554   -1.274815
     18          1           0       -0.491986   -0.587669   -1.265978
     19          1           0       -1.977333   -1.132583   -2.004379
     20          1           0       -1.798003    0.542886   -1.531677
     21          8           0        1.767100    1.123626    0.475407
     22          6           0        0.490650    1.108969    0.479309
     23          1           0       -0.057654    2.027241    0.477962
     24          8           0       -0.156944   -0.032000    0.476145
 ---------------------------------------------------------------------
                    Distance matrix (angstroms):
                    1          2          3          4          5
     1  C    0.000000
     2  H    1.072420   0.000000
     3  H    1.072122   1.754512   0.000000
     4  C    1.549362   2.151972   2.148659   0.000000
     5  H    2.153126   3.027337   2.462501   1.071602   0.000000
     6  H    2.153869   2.466780   2.459835   1.074849   1.752847
     7  C    2.551684   2.763114   3.471798   1.552211   2.162764
     8  H    2.819849   3.144563   3.796116   2.230088   2.538794
     9  H    2.786829   2.560941   3.757020   2.176768   3.055555
    10  C    3.910386   4.182780   4.665514   2.521739   2.745653
    11  H    4.178458   4.344016   4.804726   2.743222   3.079360
    12  H    4.202192   4.707166   4.833846   2.751802   2.541441
    13  N    4.989555   5.101837   5.874113   3.796141   4.083379
    14  H    5.853293   6.004267   6.675803   4.546238   4.719103
    15  H    5.073594   4.972390   6.006376   4.043079   4.556118
    16  H    5.036138   5.225698   5.969319   3.992620   4.172149
    17  C    1.544260   2.147524   2.143656   2.559617   2.780749
    18  H    2.160199   2.476697   3.028447   2.796536   3.125840
    19  H    2.152552   2.465351   2.460714   3.481390   3.753355
    20  H    2.153813   3.027484   2.463873   2.784548   2.576225
    21  O    4.368632   4.698399   5.301879   3.555970   3.615945
    22  C    3.269751   3.777297   4.123352   2.393069   2.357572
    23  H    3.529843   4.262314   4.169030   2.531443   2.025986
    24  O    2.155517   2.494292   3.139070   1.599880   2.094062
                    6          7          8          9         10
     6  H    0.000000
     7  C    2.154694   0.000000
     8  H    3.111967   1.152891   0.000000
     9  H    2.485729   1.087160   1.825400   0.000000
    10  C    2.712401   1.560874   2.248148   2.166355   0.000000
    11  H    2.492533   2.179068   3.137670   2.490728   1.075206
    12  H    3.051289   2.176705   2.567102   3.052942   1.070121
    13  N    4.053288   2.439159   2.720084   2.663950   1.462013
    14  H    4.684942   3.331301   3.648719   3.591219   2.038948
    15  H    4.205162   2.618695   3.001973   2.413649   2.034423
    16  H    4.487786   2.570202   2.391546   2.928249   1.999170
    17  C    3.479398   3.042389   2.672700   3.406002   4.474117
    18  H    3.772369   2.684774   2.030873   2.960726   4.134315
    19  H    4.282186   4.009101   3.643718   4.199939   5.492535
    20  H    3.756508   3.400903   2.936100   4.030149   4.612615
    21  O    4.317572   2.286817   1.570246   2.876296   2.376894
    22  C    3.253831   1.496929   0.869949   2.429005   1.992780
    23  H    3.357175   2.211850   1.855729   3.273464   2.338954
    24  O    2.502069   0.850343   0.707984   1.539595   2.289292
                   11         12         13         14         15
    11  H    0.000000
    12  H    1.746793   0.000000
    13  N    2.092193   2.082658   0.000000
    14  H    2.389865   2.377367   1.003182   0.000000
    15  H    2.384878   2.912902   1.002773   1.636676   0.000000
    16  H    2.900920   2.329717   1.015702   1.661990   1.657351
    17  C    5.049520   4.623281   5.318691   6.232942   5.483041
    18  H    4.844875   4.381782   4.715698   5.669126   4.827406
    19  H    6.021085   5.688356   6.291278   7.231095   6.369443
    20  H    5.250507   4.509978   5.533469   6.367244   5.877342
    21  O    3.436778   2.470420   2.115781   2.859211   2.664383
    22  C    2.989939   1.962015   2.548650   3.338967   3.108711
    23  H    3.231203   1.792873   3.143188   3.723000   3.879721
    24  O    2.998399   2.671675   3.046257   3.969433   3.249493
                   16         17         18         19         20
    16  H    0.000000
    17  C    5.061882   0.000000
    18  H    4.343081   1.070411   0.000000
    19  H    6.021633   1.072166   1.745973   0.000000
    20  H    5.208042   1.072224   1.747693   1.750087   0.000000
    21  O    1.290085   4.079623   3.326323   5.025992   4.132264
    22  C    2.155256   3.123579   2.624916   4.157428   3.098782
    23  H    2.817860   3.398636   3.172968   4.453276   3.044794
    24  O    2.918289   2.283458   1.859036   3.267736   2.656110
                   21         22         23         24
    21  O    0.000000
    22  C    1.276540   0.000000
    23  H    2.036235   1.069515   0.000000
    24  O    2.244419   1.311945   2.061634   0.000000
 Stoichiometry    C6H15NO2
 Framework group  C1[X(C6H15NO2)]
 Deg. of freedom    66
 Full point group                 C1      NOp   1
 Largest Abelian subgroup         C1      NOp   1
 Largest concise Abelian subgroup C1      NOp   1
                         Standard orientation:                         
 ---------------------------------------------------------------------
 Center     Atomic      Atomic             Coordinates (Angstroms)
 Number     Number       Type             X           Y           Z
 ---------------------------------------------------------------------
      1          6           0       -2.378956   -0.630671   -0.214400
      2          1           0       -2.394174   -0.902916   -1.251576
      3          1           0       -3.175606   -1.127589    0.303158
      4          6           0       -1.029909   -1.076366    0.403620
      5          1           0       -1.015203   -0.811665    1.441912
      6          1           0       -0.934830   -2.142336    0.303787
      7          6           0        0.159494   -0.396291   -0.325884
      8          1           0        0.079615    0.750129   -0.233693
      9          1           0        0.153040   -0.670212   -1.377950
     10          6           0        1.485157   -0.917304    0.312465
     11          1           0        1.550971   -1.985527    0.209331
     12          1           0        1.520363   -0.664392    1.351675
     13          7           0        2.594759   -0.273942   -0.389212
     14          1           0        3.470370   -0.577970   -0.005484
     15          1           0        2.561011   -0.505319   -1.364342
     16          1           0        2.470909    0.725638   -0.258251
     17          6           0       -2.585430    0.894869   -0.092590
     18          1           0       -1.803092    1.414098   -0.606524
     19          1           0       -3.528909    1.162060   -0.526176
     20          1           0       -2.576884    1.175400    0.942250
     21          8           0        1.453337    1.447077    0.070978
     22          6           0        0.470803    0.782480    0.542669
     23          1           0        0.353362    0.673803    1.600147
     24          8           0       -0.405989    0.235935   -0.265862
 ---------------------------------------------------------------------
 Rotational constants (GHZ):      3.9574917      1.2121154      1.0246027
 Standard basis: 6-311+G(d) (5D, 7F)
 There are   243 symmetry adapted basis functions of A   symmetry.
 Integral buffers will be    131072 words long.
 Raffenetti 2 integral format.
 Two-electron integral symmetry is turned on.
   243 basis functions,   399 primitive gaussians,   252 cartesian basis functions
    37 alpha electrons       37 beta electrons
       nuclear repulsion energy       592.8079941014 Hartrees.
 NAtoms=   24 NActive=   24 NUniq=   24 SFac= 7.50D-01 NAtFMM=   80 NAOKFM=F Big=F
 One-electron integrals computed using PRISM.
 NBasis=   243 RedAO= T  NBF=   243
 NBsUse=   243 1.00D-06 NBFU=   243
 Initial guess read from the read-write file.
 B after Tr=     0.000000    0.000000    0.000000
         Rot=    1.000000    0.000000    0.000000    0.000000 Ang=   0.00 deg.
 Initial guess orbital symmetries:
       Occupied  (A) (A) (A) (A) (A) (A) (A) (A) (A) (A) (A) (A)
                 (A) (A) (A) (A) (A) (A) (A) (A) (A) (A) (A) (A)
                 (A) (A) (A) (A) (A) (A) (A) (A) (A) (A) (A) (A)
                 (A)
       Virtual   (A) (A) (A) (A) (A) (A) (A) (A) (A) (A) (A) (A)
                 (A) (A) (A) (A) (A) (A) (A) (A) (A) (A) (A) (A)
                 (A) (A) (A) (A) (A) (A) (A) (A) (A) (A) (A) (A)
                 (A) (A) (A) (A) (A) (A) (A) (A) (A) (A) (A) (A)
                 (A) (A) (A) (A) (A) (A) (A) (A) (A) (A) (A) (A)
                 (A) (A) (A) (A) (A) (A) (A) (A) (A) (A) (A) (A)
                 (A) (A) (A) (A) (A) (A) (A) (A) (A) (A) (A) (A)
                 (A) (A) (A) (A) (A) (A) (A) (A) (A) (A) (A) (A)
                 (A) (A) (A) (A) (A) (A) (A) (A) (A) (A) (A) (A)
                 (A) (A) (A) (A) (A) (A) (A) (A) (A) (A) (A) (A)
                 (A) (A) (A) (A) (A) (A) (A) (A) (A) (A) (A) (A)
                 (A) (A) (A) (A) (A) (A) (A) (A) (A) (A) (A) (A)
                 (A) (A) (A) (A) (A) (A) (A) (A) (A) (A) (A) (A)
                 (A) (A) (A) (A) (A) (A) (A) (A) (A) (A) (A) (A)
                 (A) (A) (A) (A) (A) (A) (A) (A) (A) (A) (A) (A)
                 (A) (A) (A) (A) (A) (A) (A) (A) (A) (A) (A) (A)
                 (A) (A) (A) (A) (A) (A) (A) (A) (A) (A) (A) (A)
                 (A) (A)
 Harris functional with IExCor= 1009 diagonalized for initial guess.
 ExpMin= 4.38D-02 ExpMax= 8.59D+03 ExpMxC= 1.30D+03 IAcc=2 IRadAn=         0 AccDes= 0.00D+00
 HarFok:  IExCor= 1009 AccDes= 0.00D+00 IRadAn=         0 IDoV= 1
 ScaDFX=  1.000000  1.000000  1.000000  1.000000
 FoFCou: FMM=F IPFlag=           0 FMFlag=      100000 FMFlg1=           0
         NFxFlg=           0 DoJE=T BraDBF=F KetDBF=T FulRan=T
         Omega=  0.000000  0.000000  1.000000  0.000000  0.000000 ICntrl=     500 IOpCl=  0
         NMat0=    1 NMatS0=    1 NMatT0=    0 NMatD0=    1 NMtDS0=    0 NMtDT0=    0
         I1Cent=           4 NGrid=           0.
 Petite list used in FoFCou.
 Requested convergence on RMS density matrix=1.00D-08 within 128 cycles.
 Requested convergence on MAX density matrix=1.00D-06.
 Requested convergence on             energy=1.00D-06.
 No special actions if energy rises.
 SCF Done:  E(RM062X) =  -440.868941269     A.U. after   19 cycles
             Convg  =    0.9469D-08             -V/T =  1.9829
 Calling FoFJK, ICntrl=      2127 FMM=F ISym2X=0 I1Cent= 0 IOpClX= 0 NMat=1 NMatS=1 NMatT=0.
 ***** Axes restored to original set *****
 -------------------------------------------------------------------
 Center     Atomic                   Forces (Hartrees/Bohr)
 Number     Number              X              Y              Z
 -------------------------------------------------------------------
      1        6           0.015422045    0.014686789   -0.006327755
      2        1          -0.000935854   -0.015524568    0.004182706
      3        1          -0.013591636    0.000235973    0.002565806
      4        6          -0.211221888   -0.024351168    0.176319220
      5        1           0.005595708    0.012986454    0.000046191
      6        1          -0.038033872    0.002990580    0.015952824
      7        6           0.078887139   -0.065820802    2.631705564
      8        1           0.695209510   -0.127635475   -0.460775558
      9        1           0.035238796   -0.068833497    0.075404111
     10        6           0.007245095   -0.011900822    0.084814225
     11        1          -0.003584377   -0.008788529    0.030754846
     12        1          -0.000929155    0.007107798    0.018686671
     13        7          -0.003285158   -0.010665744    0.117879100
     14        1           0.009587209    0.002321180    0.017712877
     15        1           0.003721389   -0.015115984    0.004086338
     16        1           0.006740713    0.010782024   -0.048842434
     17        6          -0.021641176   -0.013352328    0.006059809
     18        1           0.005228041   -0.006110458   -0.019256111
     19        1          -0.005466905   -0.006119675   -0.011202078
     20        1          -0.001499886    0.012802134   -0.006521191
     21        8           0.076291141   -0.002164474   -0.079874402
     22        6           0.047273390    0.634880914   -0.100290700
     23        1          -0.018604818   -0.012878724   -0.013395665
     24        8          -0.667645451   -0.309531599   -2.439684395
 -------------------------------------------------------------------
 Cartesian Forces:  Max     2.631705564 RMS     0.451673311

 GradGradGradGradGradGradGradGradGradGradGradGradGradGradGradGradGradGrad
 Berny optimization.
 Using GEDIIS/GDIIS optimizer.
 Internal  Forces:  Max     1.146596505 RMS     0.165304009
 Search for a local minimum.
 Step number   2 out of a maximum of  144
 All quantities printed in internal units (Hartrees-Bohrs-Radians)
 Mixed Optimization -- RFO/linear search
 Update second derivatives using D2CorX and points    1    2
 DE= -5.07D-01 DEPred=-5.10D-01 R= 9.94D-01
 SS=  1.41D+00  RLast= 3.00D-01 DXNew= 5.0454D-01 8.9917D-01
 Trust test= 9.94D-01 RLast= 3.00D-01 DXMaxT set to 5.05D-01
 Use linear search instead of GDIIS.
 Linear search step of   0.599 exceeds DXMaxT=   0.505 but not scaled.
 Quartic linear search produced a step of  2.00000.
 Iteration  1 RMS(Cart)=  0.10753350 RMS(Int)=  0.01127644
 Iteration  2 RMS(Cart)=  0.01534303 RMS(Int)=  0.00380814
 Iteration  3 RMS(Cart)=  0.00043457 RMS(Int)=  0.00379591
 Iteration  4 RMS(Cart)=  0.00001051 RMS(Int)=  0.00379591
 Iteration  5 RMS(Cart)=  0.00000047 RMS(Int)=  0.00379591
 Variable       Old X    -DE/DX   Delta X   Delta X   Delta X     New X
                                 (Linear)    (Quad)   (Total)
    R1        2.02658   0.01544   0.00914   0.00000   0.00914   2.03572
    R2        2.02602   0.01345   0.00802   0.00000   0.00802   2.03404
    R3        2.92787   0.03790   0.03538   0.00000   0.03538   2.96325
    R4        2.91823   0.01623   0.01610   0.00000   0.01610   2.93433
    R5        2.02503   0.01100   0.00606   0.00000   0.00606   2.03109
    R6        2.03117   0.02884   0.01832   0.00000   0.01832   2.04949
    R7        2.93325   0.23575   0.04615   0.00000   0.04393   2.97719
    R8        3.02334   0.33884   0.16109   0.00000   0.16344   3.18678
    R9        2.17865   1.06046   0.31328   0.00000   0.30931   2.48796
   R10        2.05443   0.09076   0.06486   0.00000   0.06486   2.11929
   R11        2.94962   0.02016   0.07889   0.00000   0.07073   3.02036
   R12        1.60692   1.14660   0.15227   0.00000   0.14324   1.75015
   R13        1.64397   0.18597   0.13997   0.00000   0.13935   1.78332
   R14        1.33790   0.30765   0.13708   0.00000   0.13983   1.47773
   R15        2.03185   0.03042   0.01968   0.00000   0.01968   2.05152
   R16        2.02224   0.00315   0.00046   0.00000   0.00046   2.02270
   R17        2.76280  -0.06208  -0.03019   0.00000  -0.03252   2.73029
   R18        1.89574   0.01767   0.01203   0.00000   0.01203   1.90777
   R19        1.89497   0.01607   0.01048   0.00000   0.01048   1.90544
   R20        1.91940   0.17152   0.05935   0.00000   0.07000   1.98940
   R21        2.43791   0.18043   0.09361   0.00000   0.10527   2.54318
   R22        2.02278   0.00570   0.00155   0.00000   0.00155   2.02434
   R23        2.02610   0.01356   0.00819   0.00000   0.00819   2.03429
   R24        2.02621   0.01399   0.00841   0.00000   0.00841   2.03462
   R25        2.41231   0.15053   0.06856   0.00000   0.07017   2.48248
[...]
   A18        1.96909  -0.00164   0.00400   0.00300   0.00824   1.97733
   A19        2.16830   0.00013   0.00687   0.03044   0.03789   2.20619
   A20        1.60289   0.00092  -0.01369  -0.01066  -0.02810   1.57479
   A21        1.89469  -0.00077   0.00364  -0.00565  -0.00057   1.89412
   A22        1.89335   0.00072  -0.00166   0.00741   0.00547   1.89883
   A23        1.87089  -0.00105  -0.00170  -0.00075  -0.00531   1.86557
   A24        2.13542   0.00154  -0.00340  -0.02403  -0.02947   2.10595
   A25        1.90904   0.00514  -0.00024   0.01200   0.01323   1.92228
   A26        1.89958   0.00345   0.00002  -0.00400  -0.00381   1.89577
   A27        1.90179  -0.01355   0.00016  -0.00861  -0.01142   1.89038
   A28        1.87579  -0.00230   0.00522   0.00377   0.00848   1.88427
   A29        1.96909   0.00315  -0.00245  -0.00701  -0.00779   1.96131
   A30        1.90741   0.00444  -0.00260   0.00405   0.00151   1.90892
   A31        1.96441   0.00149  -0.00772  -0.00741  -0.01516   1.94925
   A32        1.43820  -0.01422  -0.00599  -0.02054  -0.02696   1.41124
   A33        1.95388   0.00256  -0.00742   0.01593   0.00865   1.96254
   A34        2.28936   0.00467   0.01728   0.03053   0.04745   2.33681
   A35        1.91233  -0.00136  -0.00140  -0.02010  -0.02146   1.89087
   A36        1.85374   0.00463   0.00138   0.00485   0.00541   1.85915
   A37        1.94348   0.00028  -0.00125   0.00265   0.00139   1.94487
   A38        1.92927   0.00026   0.00126   0.00115   0.00241   1.93169
   A39        1.93353  -0.00037  -0.00109  -0.00147  -0.00257   1.93096
   A40        1.89976  -0.00022   0.00122  -0.00122  -0.00001   1.89975
   A41        1.87534  -0.00007  -0.00055  -0.00183  -0.00239   1.87295
   A42        1.88042   0.00009   0.00046   0.00058   0.00104   1.88146
   A43        2.12151   0.00089   0.00043  -0.00253  -0.00264   2.11887
   A44        2.04779   0.00055  -0.00873   0.00605  -0.00335   2.04444
   A45        2.11388  -0.00144   0.00845  -0.00352   0.00585   2.11973
   A46        1.52538   0.00165  -0.00300  -0.01983  -0.02552   1.49985
   A47        2.59791  -0.00010  -0.00789   0.01174   0.00435   2.60226
   A48        2.35292  -0.00017  -0.00820  -0.03510  -0.04371   2.30921
   A49        2.42150   0.00020  -0.01034  -0.02063  -0.03122   2.39028
   A50        2.46114   0.00284  -0.01570  -0.01712  -0.03416   2.42698
    D1        3.09658  -0.00055  -0.00138  -0.01664  -0.01804   3.07854
    D2       -1.16731   0.00008   0.00016  -0.01532  -0.01512  -1.18243
    D3        0.93449   0.00013   0.00013  -0.00693  -0.00652   0.92797
    D4        1.47617  -0.00013   0.00348  -0.00213   0.00106   1.47723
    D5       -1.18672  -0.00038  -0.00155  -0.01641  -0.01799  -1.20470
    D6        0.83257   0.00025  -0.00001  -0.01510  -0.01506   0.81751
    D7        2.93438   0.00030  -0.00004  -0.00670  -0.00647   2.92791
    D8       -2.80713   0.00004   0.00332  -0.00190   0.00112  -2.80601
    D9        0.94122  -0.00046  -0.00119  -0.01970  -0.02092   0.92029
   D10        2.96051   0.00017   0.00034  -0.01839  -0.01799   2.94251
   D11       -1.22087   0.00022   0.00031  -0.00999  -0.00940  -1.23028
   D12       -0.67920  -0.00003   0.00367  -0.00519  -0.00182  -0.68101
   D13       -1.01927  -0.00007   0.00383   0.00672   0.01055  -1.00871
   D14        1.09474   0.00002   0.00540   0.00774   0.01314   1.10789
   D15       -3.10530   0.00007   0.00609   0.00826   0.01435  -3.09095
   D16       -3.03736  -0.00009   0.00265   0.00779   0.01044  -3.02692
   D17       -0.92335   0.00001   0.00422   0.00881   0.01303  -0.91031
   D18        1.15980   0.00005   0.00491   0.00933   0.01423   1.17403
   D19        1.12811  -0.00009   0.00368   0.01034   0.01403   1.14214
   D20       -3.04106   0.00000   0.00525   0.01137   0.01662  -3.02444
   D21       -0.95792   0.00005   0.00593   0.01189   0.01782  -0.94010
   D22        1.50806   0.00106   0.01332   0.02689   0.04113   1.54919
   D23       -0.91220  -0.00002   0.00567   0.00171   0.00744  -0.90476
   D24       -3.02110   0.00165  -0.00348   0.00513  -0.00053  -3.02163
   D25       -0.65890   0.00145   0.01404   0.03213   0.04715  -0.61175
   D26       -3.07916   0.00036   0.00639   0.00694   0.01346  -3.06570
   D27        1.09513   0.00203  -0.00275   0.01037   0.00550   1.10062
   D28       -2.66403   0.00098   0.01459   0.03041   0.04585  -2.61818
   D29        1.19890  -0.00011   0.00694   0.00523   0.01216   1.21106
   D30       -0.91000   0.00157  -0.00220   0.00866   0.00419  -0.90581
   D31        1.74949  -0.00139   0.02391   0.02109   0.04499   1.79448
   D32        2.12407  -0.00144   0.01725   0.01485   0.03333   2.15740
   D33       -0.17099  -0.00179   0.02412   0.02261   0.04660  -0.12439
   D34        0.20359  -0.00184   0.01746   0.01637   0.03494   0.23853
   D35       -2.18781  -0.00070   0.02732   0.03475   0.06207  -2.12574
   D36       -1.81323  -0.00075   0.02066   0.02851   0.05041  -1.76282
   D37        2.32481  -0.00168   0.00154   0.03951   0.04176   2.36657
   D38       -1.67122  -0.00014   0.00732   0.04963   0.05801  -1.61321
   D39        0.31875  -0.00037   0.00400   0.04473   0.04786   0.36661
   D40        1.25619   0.00037  -0.03389  -0.04955  -0.08291   1.17328
   D41       -0.78849  -0.00174  -0.04003  -0.05857  -0.09846  -0.88696
   D42       -2.86709  -0.00123  -0.03699  -0.05611  -0.09155  -2.95863
   D43       -3.07938   0.00095  -0.04507  -0.07769  -0.12251   3.08129
   D44        1.15912  -0.00116  -0.05121  -0.08671  -0.13806   1.02106
   D45       -0.91948  -0.00064  -0.04817  -0.08425  -0.13114  -1.05062
   D46       -0.85942   0.00128  -0.04257  -0.05077  -0.09364  -0.95305
   D47       -2.90410  -0.00083  -0.04871  -0.05978  -0.10919  -3.01329
   D48        1.30049  -0.00032  -0.04567  -0.05733  -0.10227   1.19822
   D49       -2.90136   0.00139  -0.04160  -0.05615  -0.09694  -2.99829
   D50        1.33714  -0.00072  -0.04774  -0.06516  -0.11249   1.22466
   D51       -0.74145  -0.00020  -0.04470  -0.06271  -0.10557  -0.84702
   D52       -2.28515  -0.00106  -0.00254  -0.01450  -0.01615  -2.30130
   D53       -0.24233  -0.00215  -0.00003  -0.01769  -0.01684  -0.25916
   D54       -0.20874  -0.00220   0.01598  -0.01531   0.00184  -0.20690
   D55        2.92782  -0.00097   0.00230  -0.01543  -0.01153   2.91628
   D56       -1.89176   0.00103   0.01199   0.01666   0.02773  -1.86403
   D57        0.40483   0.00023   0.02683   0.03984   0.06573   0.47057
   D58        2.22822  -0.00029   0.02613   0.03669   0.06083   2.28905
   D59        0.23208   0.00008   0.01017   0.02118   0.03140   0.26348
   D60        2.52867  -0.00071   0.02501   0.04436   0.06941   2.59808
   D61       -1.93113  -0.00123   0.02430   0.04121   0.06451  -1.86662
   D62        2.31773   0.00223   0.01340   0.02420   0.03810   2.35583
   D63       -1.66887   0.00143   0.02825   0.04738   0.07611  -1.59276
   D64        0.15452   0.00092   0.02754   0.04423   0.07121   0.22573
   D65        1.36249  -0.00001   0.00725   0.02789   0.03526   1.39774
   D66        0.36491   0.00018   0.01823   0.04634   0.06415   0.42906
   D67       -2.16930   0.00032  -0.00003  -0.02564  -0.02601  -2.19531
   D68        3.11631   0.00051   0.01095  -0.00719   0.00288   3.11919
         Item               Value     Threshold  Converged?
 Maximum Force            0.014221     0.000450     NO 
 RMS     Force            0.002469     0.000300     NO 
 Maximum Displacement     0.245403     0.001800     NO 
 RMS     Displacement     0.063796     0.001200     NO 
 Predicted change in Energy=-8.627617D-04
 GradGradGradGradGradGradGradGradGradGradGradGradGradGradGradGradGradGrad

                          Input orientation:                          
 ---------------------------------------------------------------------
 Center     Atomic      Atomic             Coordinates (Angstroms)
 Number     Number       Type             X           Y           Z
 ---------------------------------------------------------------------
      1          6           0       -2.444607   -1.093392    0.367102
      2          1           0       -2.208429   -2.113734    0.690303
      3          1           0       -3.535386   -1.011444    0.404453
      4          6           0       -1.863113   -0.100984    1.380953
      5          1           0       -2.034904    0.926029    1.038954
      6          1           0       -2.411289   -0.207327    2.324852
      7          6           0       -0.389003   -0.276553    1.676748
      8          1           0        1.553473    1.817271   -0.855595
      9          1           0       -0.190712   -1.325929    1.946597
     10          6           0        0.112280    0.621516    2.813045
     11          1           0       -0.337259    0.313927    3.762960
     12          1           0       -0.200112    1.649387    2.609367
     13          7           0        1.580963    0.554558    2.841161
     14          1           0        1.915357    0.013534    3.627393
     15          1           0        1.274226    0.138958    0.859780
     16          1           0        2.008514    1.470126    2.880105
     17          6           0       -1.978748   -0.885527   -1.073203
     18          1           0       -0.911188   -1.072291   -1.176906
     19          1           0       -2.520607   -1.547302   -1.753318
     20          1           0       -2.161435    0.144022   -1.392465
     21          8           0        2.610635    2.656997    0.628492
     22          6           0        2.396525    2.440801   -0.536015
     23          1           0        3.050995    2.847052   -1.327325
     24          8           0        0.376078    0.052596    0.520770
 ---------------------------------------------------------------------
                    Distance matrix (angstroms):
                    1          2          3          4          5
     1  C    0.000000
     2  H    1.096055   0.000000
     3  H    1.094490   1.748590   0.000000
     4  C    1.533265   2.155784   2.139856   0.000000
     5  H    2.167325   3.064609   2.531370   1.096007   0.000000
     6  H    2.149187   2.519383   2.366037   1.096700   1.754906
     7  C    2.570585   2.767421   3.472539   1.513711   2.135878
     8  H    5.094271   5.656369   5.956999   4.511642   4.154525
     9  H    2.762050   2.504016   3.696479   2.148807   3.048963
    10  C    3.932075   4.168131   4.666191   2.544617   2.801880
    11  H    4.237134   4.340050   4.823296   2.859080   3.267549
    12  H    4.193846   4.677310   4.802678   2.708943   2.521092
    13  N    5.004190   5.109351   5.879365   3.797842   4.057146
    14  H    5.555544   5.491574   6.414711   4.397323   4.810118
    15  H    3.948561   4.151172   4.966197   3.189371   3.406160
    16  H    5.719886   5.951630   6.559106   4.439070   4.476060
    17  C    1.527977   2.161296   2.149987   2.579101   2.783181
    18  H    2.176185   2.500782   3.064444   2.896937   3.188425
    19  H    2.169791   2.527763   2.443951   3.513942   3.761655
    20  H    2.169667   3.072067   2.540031   2.800155   2.557213
    21  O    6.299938   6.781378   7.161091   5.309151   4.974512
    22  C    6.061576   6.591908   6.927485   5.317890   4.940914
    23  H    6.971357   7.506115   7.827353   6.338308   5.929248
    24  O    3.048470   3.376597   4.055276   2.403639   2.616149
                    6          7          8          9         10
     6  H    0.000000
     7  C    2.124729   0.000000
     8  H    5.471159   3.817077   0.000000
     9  H    2.515017   1.101511   4.557868   0.000000
    10  C    2.700687   1.532639   4.118955   2.152922   0.000000
    11  H    2.577102   2.168784   5.212097   2.451484   1.095004
    12  H    2.901316   2.148186   3.887057   3.048255   1.093432
    13  N    4.096964   2.434618   3.906559   2.734100   1.470477
    14  H    4.523854   3.033025   4.845783   3.009113   2.069756
    15  H    3.981126   1.899057   2.416035   2.339467   2.323408
    16  H    4.759917   3.201100   3.779289   3.677765   2.078543
    17  C    3.491967   3.234250   4.452983   3.536979   4.663315
    18  H    3.906504   3.008192   3.811478   3.215539   4.453783
    19  H    4.294061   4.233662   5.359514   4.377989   5.699784
    20  H    3.742235   3.569099   4.109567   4.146546   4.804591
    21  O    6.025090   4.324626   2.006301   5.044665   3.893229
    22  C    6.189687   4.476550   1.096201   5.200520   4.443397
    23  H    7.245977   5.533078   1.877645   6.216188   5.543620
    24  O    3.330419   1.424771   2.528778   2.062659   2.376507
                   11         12         13         14         15
    11  H    0.000000
    12  H    1.770039   0.000000
    13  N    2.141773   2.103475   0.000000
    14  H    2.276597   2.861399   1.011281   0.000000
    15  H    3.325049   2.741555   2.047604   2.843671   0.000000
    16  H    2.760232   2.232368   1.011228   1.639750   2.528419
    17  C    5.246108   4.811513   5.483396   6.169925   3.920182
    18  H    5.162680   4.716887   5.000231   5.678879   3.223546
    19  H    6.217756   5.885281   6.507682   7.146050   4.906374
    20  H    5.471278   4.703995   5.665481   6.468094   4.108090
    21  O    4.899484   3.583217   3.221238   4.057674   2.860071
    22  C    5.520721   4.154791   3.953273   4.843255   2.916553
    23  H    6.618760   5.244201   4.979237   5.819599   3.908211
    24  O    3.330006   2.691463   2.662316   3.467277   0.963875
                   16         17         18         19         20
    16  H    0.000000
    17  C    6.089007   0.000000
    18  H    5.607841   1.088724   0.000000
    19  H    7.147476   1.092755   1.774293   0.000000
    20  H    6.115708   1.093286   1.757556   1.766294   0.000000
    21  O    2.615526   6.042159   5.437857   7.048318   5.759511
    22  C    3.572484   5.522322   4.867599   6.447091   5.175298
    23  H    4.548094   6.268575   5.575192   7.108767   5.871971
    24  O    3.200109   2.994333   2.409259   4.015213   3.179277
                   21         22         23         24
    21  O    0.000000
    22  C    1.203603   0.000000
    23  H    2.013767   1.104329   0.000000
    24  O    3.433330   3.301897   4.287146   0.000000
 Stoichiometry    C6H15NO2
 Framework group  C1[X(C6H15NO2)]
 Deg. of freedom    66
 Full point group                 C1      NOp   1
 Largest Abelian subgroup         C1      NOp   1
 Largest concise Abelian subgroup C1      NOp   1
                         Standard orientation:                         
 ---------------------------------------------------------------------
 Center     Atomic      Atomic             Coordinates (Angstroms)
 Number     Number       Type             X           Y           Z
 ---------------------------------------------------------------------
      1          6           0        2.965316   -0.244872    0.063423
      2          1           0        3.287691    0.243270   -0.863470
      3          1           0        3.821020   -0.192378    0.743808
      4          6           0        1.820910    0.565820    0.683114
      5          1           0        1.443718    0.056253    1.577149
      6          1           0        2.221448    1.528552    1.022921
      7          6           0        0.658685    0.847011   -0.245048
      8          1           0       -1.794058   -2.061450    0.063142
      9          1           0        1.034674    1.288682   -1.181470
     10          6           0       -0.382266    1.796766    0.357753
     11          1           0        0.045538    2.797510    0.478296
     12          1           0       -0.659736    1.427089    1.348683
     13          7           0       -1.567424    1.795781   -0.512707
     14          1           0       -1.643105    2.654248   -1.041855
     15          1           0       -0.850629   -0.074753   -0.936958
     16          1           0       -2.426287    1.664121    0.004594
     17          6           0        2.636691   -1.711642   -0.210996
     18          1           0        1.865328   -1.810706   -0.972903
     19          1           0        3.528136   -2.251998   -0.538799
     20          1           0        2.264451   -2.198962    0.694118
     21          8           0       -3.305657   -0.774419    0.352736
     22          6           0       -2.871624   -1.877704    0.145275
     23          1           0       -3.542118   -2.744964    0.011710
     24          8           0       -0.018141   -0.368988   -0.550379
 ---------------------------------------------------------------------
 Rotational constants (GHZ):      1.8959514      0.7711430      0.5880305
 Standard basis: 6-311+G(d) (5D, 7F)
 There are   243 symmetry adapted basis functions of A   symmetry.
 Integral buffers will be    131072 words long.
 Raffenetti 2 integral format.
 Two-electron integral symmetry is turned on.
   243 basis functions,   399 primitive gaussians,   252 cartesian basis functions
    37 alpha electrons       37 beta electrons
       nuclear repulsion energy       475.4590063171 Hartrees.
 NAtoms=   24 NActive=   24 NUniq=   24 SFac= 7.50D-01 NAtFMM=   80 NAOKFM=F Big=F
 One-electron integrals computed using PRISM.
 NBasis=   243 RedAO= T  NBF=   243
 NBsUse=   243 1.00D-06 NBFU=   243
 Initial guess read from the read-write file.
 B after Tr=     0.000000    0.000000    0.000000
         Rot=    1.000000    0.000000    0.000000    0.000000 Ang=   0.00 deg.
 Initial guess orbital symmetries:
       Occupied  (A) (A) (A) (A) (A) (A) (A) (A) (A) (A) (A) (A)
                 (A) (A) (A) (A) (A) (A) (A) (A) (A) (A) (A) (A)
                 (A) (A) (A) (A) (A) (A) (A) (A) (A) (A) (A) (A)
                 (A)
       Virtual   (A) (A) (A) (A) (A) (A) (A) (A) (A) (A) (A) (A)
                 (A) (A) (A) (A) (A) (A) (A) (A) (A) (A) (A) (A)
                 (A) (A) (A) (A) (A) (A) (A) (A) (A) (A) (A) (A)
                 (A) (A) (A) (A) (A) (A) (A) (A) (A) (A) (A) (A)
                 (A) (A) (A) (A) (A) (A) (A) (A) (A) (A) (A) (A)
                 (A) (A) (A) (A) (A) (A) (A) (A) (A) (A) (A) (A)
                 (A) (A) (A) (A) (A) (A) (A) (A) (A) (A) (A) (A)
                 (A) (A) (A) (A) (A) (A) (A) (A) (A) (A) (A) (A)
                 (A) (A) (A) (A) (A) (A) (A) (A) (A) (A) (A) (A)
                 (A) (A) (A) (A) (A) (A) (A) (A) (A) (A) (A) (A)
                 (A) (A) (A) (A) (A) (A) (A) (A) (A) (A) (A) (A)
                 (A) (A) (A) (A) (A) (A) (A) (A) (A) (A) (A) (A)
                 (A) (A) (A) (A) (A) (A) (A) (A) (A) (A) (A) (A)
                 (A) (A) (A) (A) (A) (A) (A) (A) (A) (A) (A) (A)
                 (A) (A) (A) (A) (A) (A) (A) (A) (A) (A) (A) (A)
                 (A) (A) (A) (A) (A) (A) (A) (A) (A) (A) (A) (A)
                 (A) (A) (A) (A) (A) (A) (A) (A) (A) (A) (A) (A)
                 (A) (A)
 Harris functional with IExCor= 1009 diagonalized for initial guess.
 ExpMin= 4.38D-02 ExpMax= 8.59D+03 ExpMxC= 1.30D+03 IAcc=2 IRadAn=         0 AccDes= 0.00D+00
 HarFok:  IExCor= 1009 AccDes= 0.00D+00 IRadAn=         0 IDoV= 1
 ScaDFX=  1.000000  1.000000  1.000000  1.000000
 FoFCou: FMM=F IPFlag=           0 FMFlag=      100000 FMFlg1=           0
         NFxFlg=           0 DoJE=T BraDBF=F KetDBF=T FulRan=T
         Omega=  0.000000  0.000000  1.000000  0.000000  0.000000 ICntrl=     500 IOpCl=  0
         NMat0=    1 NMatS0=    1 NMatT0=    0 NMatD0=    1 NMtDS0=    0 NMtDT0=    0
         I1Cent=           4 NGrid=           0.
 Petite list used in FoFCou.
 Requested convergence on RMS density matrix=1.00D-08 within 128 cycles.
 Requested convergence on MAX density matrix=1.00D-06.
 Requested convergence on             energy=1.00D-06.
 No special actions if energy rises.
 SCF Done:  E(RM062X) =  -442.746773912     A.U. after   13 cycles
             Convg  =    0.4202D-08             -V/T =  2.0036
 Calling FoFJK, ICntrl=      2127 FMM=F ISym2X=0 I1Cent= 0 IOpClX= 0 NMat=1 NMatS=1 NMatT=0.
