 Entering Gaussian System, Link 0=g09
 Input=HMI_TF2_4.com
 Output=HMI_TF2_4.log
 Initial command:
 /gscratch/pfaendtner/codes/G09/g09/l1.exe /gscratch/pfaendtner/wesley/gaussian/Gau-744.inp -scrdir=/gscratch/pfaendtner/wesley/gaussian/
 Entering Link 1 = /gscratch/pfaendtner/codes/G09/g09/l1.exe PID=       760.
  
 Copyright (c) 1988,1990,1992,1993,1995,1998,2003,2009, Gaussian, Inc.
                  All Rights Reserved.
  
 This is part of the Gaussian(R) 09 program.  It is based on
 the Gaussian(R) 03 system (copyright 2003, Gaussian, Inc.),
 the Gaussian(R) 98 system (copyright 1998, Gaussian, Inc.),
 the Gaussian(R) 94 system (copyright 1995, Gaussian, Inc.),
 the Gaussian 92(TM) system (copyright 1992, Gaussian, Inc.),
 the Gaussian 90(TM) system (copyright 1990, Gaussian, Inc.),
 the Gaussian 88(TM) system (copyright 1988, Gaussian, Inc.),
 the Gaussian 86(TM) system (copyright 1986, Carnegie Mellon
 University), and the Gaussian 82(TM) system (copyright 1983,
 Carnegie Mellon University). Gaussian is a federally registered
 trademark of Gaussian, Inc.
  
 This software contains proprietary and confidential information,
 including trade secrets, belonging to Gaussian, Inc.
  
 This software is provided under written license and may be
 used, copied, transmitted, or stored only in accord with that
 written license.
  
 The following legend is applicable only to US Government
 contracts under FAR:
  
                    RESTRICTED RIGHTS LEGEND
  
 Use, reproduction and disclosure by the US Government is
 subject to restrictions as set forth in subparagraphs (a)
 and (c) of the Commercial Computer Software - Restricted
 Rights clause in FAR 52.227-19.
  
 Gaussian, Inc.
 340 Quinnipiac St., Bldg. 40, Wallingford CT 06492
  
  
 ---------------------------------------------------------------
 Warning -- This program may not be used in any manner that
 competes with the business of Gaussian, Inc. or will provide
 assistance to any competitor of Gaussian, Inc.  The licensee
 of this program is prohibited from giving any competitor of
 Gaussian, Inc. access to this program.  By using this program,
 the user acknowledges that Gaussian, Inc. is engaged in the
 business of creating and licensing software in the field of
 computational chemistry and represents and warrants to the
 licensee that it is not a competitor of Gaussian, Inc. and that
 it will not use this program in any manner prohibited above.
 ---------------------------------------------------------------
  

 Cite this work as:
 Gaussian 09, Revision A.02,
 M. J. Frisch, G. W. Trucks, H. B. Schlegel, G. E. Scuseria, 
 M. A. Robb, J. R. Cheeseman, G. Scalmani, V. Barone, B. Mennucci, 
 G. A. Petersson, H. Nakatsuji, M. Caricato, X. Li, H. P. Hratchian, 
 A. F. Izmaylov, J. Bloino, G. Zheng, J. L. Sonnenberg, M. Hada, 
 M. Ehara, K. Toyota, R. Fukuda, J. Hasegawa, M. Ishida, T. Nakajima, 
 Y. Honda, O. Kitao, H. Nakai, T. Vreven, J. A. Montgomery, Jr., 
 J. E. Peralta, F. Ogliaro, M. Bearpark, J. J. Heyd, E. Brothers, 
 K. N. Kudin, V. N. Staroverov, R. Kobayashi, J. Normand, 
 K. Raghavachari, A. Rendell, J. C. Burant, S. S. Iyengar, J. Tomasi, 
 M. Cossi, N. Rega, J. M. Millam, M. Klene, J. E. Knox, J. B. Cross, 
 V. Bakken, C. Adamo, J. Jaramillo, R. Gomperts, R. E. Stratmann, 
 O. Yazyev, A. J. Austin, R. Cammi, C. Pomelli, J. W. Ochterski, 
 R. L. Martin, K. Morokuma, V. G. Zakrzewski, G. A. Voth, 
 P. Salvador, J. J. Dannenberg, S. Dapprich, A. D. Daniels, 
 O. Farkas, J. B. Foresman, J. V. Ortiz, J. Cioslowski, 
 and D. J. Fox, Gaussian, Inc., Wallingford CT, 2009.
 
 ******************************************
 Gaussian 09:  EM64L-G09RevA.02 11-Jun-2009
                 8-Mar-2017 
 ******************************************
 %chk=HMI_TF2_4.chk
 %nprocshared=16
 Will use up to   16 processors via shared memory.
 --------------------------------------
 # opt M062X/6-311+G* geom=connectivity
 --------------------------------------
 1/14=-1,18=20,19=15,26=3,38=1,57=2/1,3;
 2/9=110,12=2,17=6,18=5,40=1/2;
 3/5=4,6=6,7=11,11=2,16=1,25=1,30=1,71=1,74=-55/1,2,3;
 4//1;
 5/5=2,38=5/2;
 6/7=2,8=2,9=2,10=2,28=1/1;
 7//1,2,3,16;
 1/14=-1,18=20,19=15/3(2);
 2/9=110/2;
 99//99;
 2/9=110/2;
 3/5=4,6=6,7=11,11=2,16=1,25=1,30=1,71=1,74=-55/1,2,3;
 4/5=5,16=3/1;
 5/5=2,38=5/2;
 7//1,2,3,16;
 1/14=-1,18=20,19=15/3(-5);
 2/9=110/2;
 6/7=2,8=2,9=2,10=2,19=2,28=1/1;
 99/9=1/99;
 -------------------
 Title Card Required
 -------------------
 Symbolic Z-matrix:
 Charge =  0 Multiplicity = 1
 C(PDBName=C1,ResName=HMI,ResNum=1)  0.035    -0.965    -0.211 
 C(PDBName=C2,ResName=HMI,ResNum=1)  1.374    -0.982    -0.135 
 C(PDBName=C3,ResName=HMI,ResNum=1)  0.709     1.075     0.137 
 N(PDBName=N1,ResName=HMI,ResNum=1) -0.367     0.341    -0.034 
 H(PDBName=H1,ResName=HMI,ResNum=1) -0.664    -1.756    -0.367 
 H(PDBName=H2,ResName=HMI,ResNum=1)  2.07     -1.789    -0.213 
 H(PDBName=H3,ResName=HMI,ResNum=1)  0.712     2.132     0.3 
 N(PDBName=N2,ResName=HMI,ResNum=1)  1.782     0.316     0.084 
 C(PDBName=C4,ResName=HMI,ResNum=1) -1.76      0.832    -0.07 
 H(PDBName=H4,ResName=HMI,ResNum=1) -1.76      1.806     0.398 
 H(PDBName=H5,ResName=HMI,ResNum=1) -2.342     0.168     0.555 
 C(PDBName=C5,ResName=HMI,ResNum=1) -2.314     0.899    -1.491 
 H(PDBName=H6,ResName=HMI,ResNum=1) -2.264    -0.087    -1.945 
 H(PDBName=H7,ResName=HMI,ResNum=1) -1.684     1.553    -2.088 
 C(PDBName=C6,ResName=HMI,ResNum=1) -3.759     1.404    -1.506 
 H(PDBName=H8,ResName=HMI,ResNum=1) -4.378     0.749    -0.897 
 H(PDBName=H9,ResName=HMI,ResNum=1) -3.803     2.388    -1.044 
 C(PDBName=C7,ResName=HMI,ResNum=1) -4.339     1.481    -2.92 
 H(PDBName=H10,ResName=HMI,ResNum=1) -3.718     2.136    -3.529 
 H(PDBName=H11,ResName=HMI,ResNum=1) -4.293     0.497    -3.382 
 C(PDBName=C8,ResName=HMI,ResNum=1) -5.783     1.986    -2.945 
 H(PDBName=H12,ResName=HMI,ResNum=1) -6.403     1.332    -2.336 
 H(PDBName=H13,ResName=HMI,ResNum=1) -5.829     2.97     -2.483 
 C(PDBName=C9,ResName=HMI,ResNum=1) -6.359     2.061    -4.359 
 H(PDBName=H14,ResName=HMI,ResNum=1) -7.381     2.422    -4.343 
 H(PDBName=H15,ResName=HMI,ResNum=1) -5.78      2.735    -4.983 
 H(PDBName=H16,ResName=HMI,ResNum=1) -6.359     1.086    -4.835 
 C(PDBName=C10,ResName=HMI,ResNum=1)  3.17      0.761     0.238 
 H(PDBName=H17,ResName=HMI,ResNum=1)  3.612     0.267     1.091 
 H(PDBName=H18,ResName=HMI,ResNum=1)  3.723     0.523    -0.658 
 H(PDBName=H19,ResName=HMI,ResNum=1)  3.18      1.828     0.395 
 N                     2.89418   0.60041   3.96208 
 S                     1.93418  -0.30159   3.09008 
 S                     2.46218   1.45541   5.20408 
 O                     1.25818  -1.34159   3.80708 
 O                     1.19118   0.41841   2.09808 
 O                     3.30418   2.60541   5.33008 
 O                     1.04718   1.61141   5.36008 
 C                     3.22918  -1.16159   2.15008 
 C                     2.96118   0.42441   6.61808 
 F                     2.64918  -2.00159   1.31408 
 F                     3.96018  -0.33059   1.44508 
 F                     4.02218  -1.85359   2.93508 
 F                     4.25218   0.17641   6.59208 
 F                     2.32218  -0.71959   6.63308 
 F                     2.69218   1.06041   7.74108 
 

 GradGradGradGradGradGradGradGradGradGradGradGradGradGradGradGradGradGrad
 Berny optimization.
 Initialization pass.
                           ----------------------------
                           !    Initial Parameters    !
                           ! (Angstroms and Degrees)  !
 --------------------------                            --------------------------
 ! Name  Definition              Value          Derivative Info.                !
 --------------------------------------------------------------------------------
 ! R1    R(1,2)                  1.3413         estimate D2E/DX2                !
 ! R2    R(1,4)                  1.3779         estimate D2E/DX2                !
 ! R3    R(1,5)                  1.0671         estimate D2E/DX2                !
 ! R4    R(2,6)                  1.0685         estimate D2E/DX2                !
 ! R5    R(2,8)                  1.3781         estimate D2E/DX2                !
 ! R6    R(3,4)                  1.3137         estimate D2E/DX2                !
 ! R7    R(3,7)                  1.0695         estimate D2E/DX2                !
 ! R8    R(3,8)                  1.3154         estimate D2E/DX2                !
 ! R9    R(4,9)                  1.4774         estimate D2E/DX2                !
 ! R10   R(6,41)                 1.647          estimate D2E/DX2                !
 ! R11   R(8,28)                 1.4657         estimate D2E/DX2                !
 ! R12   R(9,10)                 1.0806         estimate D2E/DX2                !
 ! R13   R(9,11)                 1.0818         estimate D2E/DX2                !
 ! R14   R(9,12)                 1.5266         estimate D2E/DX2                !
 ! R15   R(12,13)                1.0867         estimate D2E/DX2                !
 ! R16   R(12,14)                1.0867         estimate D2E/DX2                !
 ! R17   R(12,15)                1.5308         estimate D2E/DX2                !
 ! R18   R(15,16)                1.0877         estimate D2E/DX2                !
 ! R19   R(15,17)                1.088          estimate D2E/DX2                !
 ! R20   R(15,18)                1.5303         estimate D2E/DX2                !
 ! R21   R(18,19)                1.0888         estimate D2E/DX2                !
 ! R22   R(18,20)                1.088          estimate D2E/DX2                !
 ! R23   R(18,21)                1.53           estimate D2E/DX2                !
 ! R24   R(21,22)                1.0877         estimate D2E/DX2                !
 ! R25   R(21,23)                1.088          estimate D2E/DX2                !
 ! R26   R(21,24)                1.5287         estimate D2E/DX2                !
 ! R27   R(24,25)                1.084          estimate D2E/DX2                !
 ! R28   R(24,26)                1.0858         estimate D2E/DX2                !
 ! R29   R(24,27)                1.085          estimate D2E/DX2                !
 ! R30   R(28,29)                1.0803         estimate D2E/DX2                !
 ! R31   R(28,30)                1.0795         estimate D2E/DX2                !
 ! R32   R(28,31)                1.0785         estimate D2E/DX2                !
 ! R33   R(29,42)                0.777          estimate D2E/DX2                !
 ! R34   R(32,33)                1.5797         estimate D2E/DX2                !
 ! R35   R(32,34)                1.5685         estimate D2E/DX2                !
 ! R36   R(33,35)                1.4327         estimate D2E/DX2                !
 ! R37   R(33,36)                1.4334         estimate D2E/DX2                !
 ! R38   R(33,39)                1.8167         estimate D2E/DX2                !
 ! R39   R(34,37)                1.4309         estimate D2E/DX2                !
 ! R40   R(34,38)                1.4321         estimate D2E/DX2                !
 ! R41   R(34,40)                1.8197         estimate D2E/DX2                !
 ! R42   R(39,41)                1.3194         estimate D2E/DX2                !
 ! R43   R(39,42)                1.3122         estimate D2E/DX2                !
 ! R44   R(39,43)                1.313          estimate D2E/DX2                !
 ! R45   R(40,44)                1.3149         estimate D2E/DX2                !
 ! R46   R(40,45)                1.3105         estimate D2E/DX2                !
 ! R47   R(40,46)                1.3183         estimate D2E/DX2                !
 ! A1    A(2,1,4)              107.2171         estimate D2E/DX2                !
 ! A2    A(2,1,5)              130.7571         estimate D2E/DX2                !
 ! A3    A(4,1,5)              122.0242         estimate D2E/DX2                !
 ! A4    A(1,2,6)              130.9729         estimate D2E/DX2                !
 ! A5    A(1,2,8)              107.015          estimate D2E/DX2                !
 ! A6    A(6,2,8)              122.0119         estimate D2E/DX2                !
 ! A7    A(4,3,7)              125.0534         estimate D2E/DX2                !
 ! A8    A(4,3,8)              109.9072         estimate D2E/DX2                !
 ! A9    A(7,3,8)              125.0387         estimate D2E/DX2                !
 ! A10   A(1,4,3)              107.899          estimate D2E/DX2                !
 ! A11   A(1,4,9)              125.9402         estimate D2E/DX2                !
 ! A12   A(3,4,9)              126.1389         estimate D2E/DX2                !
 ! A13   A(2,8,3)              107.9612         estimate D2E/DX2                !
 ! A14   A(2,8,28)             125.6627         estimate D2E/DX2                !
 ! A15   A(3,8,28)             126.375          estimate D2E/DX2                !
 ! A16   A(4,9,10)             106.7978         estimate D2E/DX2                !
 ! A17   A(4,9,11)             106.8095         estimate D2E/DX2                !
 ! A18   A(4,9,12)             112.2973         estimate D2E/DX2                !
 ! A19   A(10,9,11)            107.6398         estimate D2E/DX2                !
 ! A20   A(10,9,12)            111.3192         estimate D2E/DX2                !
 ! A21   A(11,9,12)            111.6832         estimate D2E/DX2                !
 ! A22   A(9,12,13)            109.4124         estimate D2E/DX2                !
 ! A23   A(9,12,14)            109.1093         estimate D2E/DX2                !
 ! A24   A(9,12,15)            111.4785         estimate D2E/DX2                !
 ! A25   A(13,12,14)           106.8498         estimate D2E/DX2                !
 ! A26   A(13,12,15)           109.7966         estimate D2E/DX2                !
 ! A27   A(14,12,15)           110.0788         estimate D2E/DX2                !
 ! A28   A(12,15,16)           109.4545         estimate D2E/DX2                !
 ! A29   A(12,15,17)           109.4141         estimate D2E/DX2                !
 ! A30   A(12,15,18)           112.5466         estimate D2E/DX2                !
 ! A31   A(16,15,17)           106.4917         estimate D2E/DX2                !
 ! A32   A(16,15,18)           109.3881         estimate D2E/DX2                !
 ! A33   A(17,15,18)           109.3628         estimate D2E/DX2                !
 ! A34   A(15,18,19)           109.3247         estimate D2E/DX2                !
 ! A35   A(15,18,20)           109.3189         estimate D2E/DX2                !
 ! A36   A(15,18,21)           112.919          estimate D2E/DX2                !
 ! A37   A(19,18,20)           106.4056         estimate D2E/DX2                !
 ! A38   A(19,18,21)           109.3048         estimate D2E/DX2                !
 ! A39   A(20,18,21)           109.3585         estimate D2E/DX2                !
 ! A40   A(18,21,22)           109.2921         estimate D2E/DX2                !
 ! A41   A(18,21,23)           109.3585         estimate D2E/DX2                !
 ! A42   A(18,21,24)           112.7642         estimate D2E/DX2                !
 ! A43   A(22,21,23)           106.3764         estimate D2E/DX2                !
 ! A44   A(22,21,24)           109.4287         estimate D2E/DX2                !
 ! A45   A(23,21,24)           109.4187         estimate D2E/DX2                !
 ! A46   A(21,24,25)           110.9734         estimate D2E/DX2                !
 ! A47   A(21,24,26)           111.1692         estimate D2E/DX2                !
 ! A48   A(21,24,27)           111.2058         estimate D2E/DX2                !
 ! A49   A(25,24,26)           107.7291         estimate D2E/DX2                !
 ! A50   A(25,24,27)           107.8027         estimate D2E/DX2                !
 ! A51   A(26,24,27)           107.8001         estimate D2E/DX2                !
 ! A52   A(8,28,29)            109.3652         estimate D2E/DX2                !
 ! A53   A(8,28,30)            109.3281         estimate D2E/DX2                !
 ! A54   A(8,28,31)            108.9314         estimate D2E/DX2                !
 ! A55   A(29,28,30)           110.1803         estimate D2E/DX2                !
 ! A56   A(29,28,31)           109.4912         estimate D2E/DX2                !
 ! A57   A(30,28,31)           109.5236         estimate D2E/DX2                !
 ! A58   A(28,29,42)           153.4931         estimate D2E/DX2                !
 ! A59   A(33,32,34)           125.5178         estimate D2E/DX2                !
 ! A60   A(32,33,35)           115.148          estimate D2E/DX2                !
 ! A61   A(32,33,36)           114.2183         estimate D2E/DX2                !
 ! A62   A(32,33,39)            97.0494         estimate D2E/DX2                !
 ! A63   A(35,33,36)           117.8009         estimate D2E/DX2                !
 ! A64   A(35,33,39)           104.5756         estimate D2E/DX2                !
 ! A65   A(36,33,39)           104.4304         estimate D2E/DX2                !
 ! A66   A(32,34,37)           110.2284         estimate D2E/DX2                !
 ! A67   A(32,34,38)           114.6938         estimate D2E/DX2                !
 ! A68   A(32,34,40)           103.3516         estimate D2E/DX2                !
 ! A69   A(37,34,38)           118.9662         estimate D2E/DX2                !
 ! A70   A(37,34,40)           103.0364         estimate D2E/DX2                !
 ! A71   A(38,34,40)           104.3603         estimate D2E/DX2                !
 ! A72   A(33,39,41)           108.4138         estimate D2E/DX2                !
 ! A73   A(33,39,42)           112.0434         estimate D2E/DX2                !
 ! A74   A(33,39,43)           111.7574         estimate D2E/DX2                !
 ! A75   A(41,39,42)           107.9168         estimate D2E/DX2                !
 ! A76   A(41,39,43)           107.9854         estimate D2E/DX2                !
 ! A77   A(42,39,43)           108.5735         estimate D2E/DX2                !
 ! A78   A(34,40,44)           111.1457         estimate D2E/DX2                !
 ! A79   A(34,40,45)           111.7025         estimate D2E/DX2                !
 ! A80   A(34,40,46)           109.4286         estimate D2E/DX2                !
 ! A81   A(44,40,45)           108.321          estimate D2E/DX2                !
 ! A82   A(44,40,46)           107.9496         estimate D2E/DX2                !
 ! A83   A(45,40,46)           108.1741         estimate D2E/DX2                !
 ! A84   A(29,42,39)           118.8331         estimate D2E/DX2                !
 ! D1    D(4,1,2,6)            179.6431         estimate D2E/DX2                !
 ! D2    D(4,1,2,8)             -0.1856         estimate D2E/DX2                !
 ! D3    D(5,1,2,6)              0.1001         estimate D2E/DX2                !
 ! D4    D(5,1,2,8)           -179.7285         estimate D2E/DX2                !
 ! D5    D(2,1,4,3)              0.2222         estimate D2E/DX2                !
 ! D6    D(2,1,4,9)            178.5991         estimate D2E/DX2                !
 ! D7    D(5,1,4,3)            179.8138         estimate D2E/DX2                !
 ! D8    D(5,1,4,9)             -1.8092         estimate D2E/DX2                !
 ! D9    D(1,2,8,3)              0.0853         estimate D2E/DX2                !
 ! D10   D(1,2,8,28)           179.7294         estimate D2E/DX2                !
 ! D11   D(6,2,8,3)           -179.7621         estimate D2E/DX2                !
 ! D12   D(6,2,8,28)            -0.118          estimate D2E/DX2                !
 ! D13   D(7,3,4,1)           -179.8896         estimate D2E/DX2                !
 ! D14   D(7,3,4,9)              1.7375         estimate D2E/DX2                !
 ! D15   D(8,3,4,1)             -0.1717         estimate D2E/DX2                !
 ! D16   D(8,3,4,9)           -178.5446         estimate D2E/DX2                !
 ! D17   D(4,3,8,2)              0.0557         estimate D2E/DX2                !
 ! D18   D(4,3,8,28)          -179.5853         estimate D2E/DX2                !
 ! D19   D(7,3,8,2)            179.7737         estimate D2E/DX2                !
 ! D20   D(7,3,8,28)             0.1327         estimate D2E/DX2                !
 ! D21   D(1,4,9,10)           162.7791         estimate D2E/DX2                !
 ! D22   D(1,4,9,11)            47.8268         estimate D2E/DX2                !
 ! D23   D(1,4,9,12)           -74.9278         estimate D2E/DX2                !
 ! D24   D(3,4,9,10)           -19.1335         estimate D2E/DX2                !
 ! D25   D(3,4,9,11)          -134.0858         estimate D2E/DX2                !
 ! D26   D(3,4,9,12)           103.1596         estimate D2E/DX2                !
 ! D27   D(2,8,28,29)          -60.5025         estimate D2E/DX2                !
 ! D28   D(2,8,28,30)           60.2134         estimate D2E/DX2                !
 ! D29   D(2,8,28,31)          179.8641         estimate D2E/DX2                !
 ! D30   D(3,8,28,29)          119.0771         estimate D2E/DX2                !
 ! D31   D(3,8,28,30)         -120.207          estimate D2E/DX2                !
 ! D32   D(3,8,28,31)           -0.5563         estimate D2E/DX2                !
 ! D33   D(4,9,12,13)           58.1212         estimate D2E/DX2                !
 ! D34   D(4,9,12,14)          -58.4527         estimate D2E/DX2                !
 ! D35   D(4,9,12,15)          179.7596         estimate D2E/DX2                !
 ! D36   D(10,9,12,13)         177.813          estimate D2E/DX2                !
 ! D37   D(10,9,12,14)          61.2391         estimate D2E/DX2                !
 ! D38   D(10,9,12,15)         -60.5487         estimate D2E/DX2                !
 ! D39   D(11,9,12,13)         -61.8399         estimate D2E/DX2                !
 ! D40   D(11,9,12,14)        -178.4138         estimate D2E/DX2                !
 ! D41   D(11,9,12,15)          59.7985         estimate D2E/DX2                !
 ! D42   D(9,12,15,16)         -58.1498         estimate D2E/DX2                !
 ! D43   D(9,12,15,17)          58.1906         estimate D2E/DX2                !
 ! D44   D(9,12,15,18)         179.99           estimate D2E/DX2                !
 ! D45   D(13,12,15,16)         63.2655         estimate D2E/DX2                !
 ! D46   D(13,12,15,17)        179.6059         estimate D2E/DX2                !
 ! D47   D(13,12,15,18)        -58.5947         estimate D2E/DX2                !
 ! D48   D(14,12,15,16)       -179.3745         estimate D2E/DX2                !
 ! D49   D(14,12,15,17)        -63.034          estimate D2E/DX2                !
 ! D50   D(14,12,15,18)         58.7653         estimate D2E/DX2                !
 ! D51   D(12,15,18,19)        -58.0397         estimate D2E/DX2                !
 ! D52   D(12,15,18,20)         58.0702         estimate D2E/DX2                !
 ! D53   D(12,15,18,21)       -179.9525         estimate D2E/DX2                !
 ! D54   D(16,15,18,19)       -179.9375         estimate D2E/DX2                !
 ! D55   D(16,15,18,20)        -63.8277         estimate D2E/DX2                !
 ! D56   D(16,15,18,21)         58.1496         estimate D2E/DX2                !
 ! D57   D(17,15,18,19)         63.7888         estimate D2E/DX2                !
 ! D58   D(17,15,18,20)        179.8986         estimate D2E/DX2                !
 ! D59   D(17,15,18,21)        -58.124          estimate D2E/DX2                !
 ! D60   D(15,18,21,22)        -58.0339         estimate D2E/DX2                !
 ! D61   D(15,18,21,23)         58.0449         estimate D2E/DX2                !
 ! D62   D(15,18,21,24)       -179.9773         estimate D2E/DX2                !
 ! D63   D(19,18,21,22)       -179.9579         estimate D2E/DX2                !
 ! D64   D(19,18,21,23)        -63.8791         estimate D2E/DX2                !
 ! D65   D(19,18,21,24)         58.0987         estimate D2E/DX2                !
 ! D66   D(20,18,21,22)         63.9213         estimate D2E/DX2                !
 ! D67   D(20,18,21,23)        180.0            estimate D2E/DX2                !
 ! D68   D(20,18,21,24)        -58.0221         estimate D2E/DX2                !
 ! D69   D(18,21,24,25)       -179.9708         estimate D2E/DX2                !
 ! D70   D(18,21,24,26)        -60.0917         estimate D2E/DX2                !
 ! D71   D(18,21,24,27)         60.0328         estimate D2E/DX2                !
 ! D72   D(22,21,24,25)         58.1629         estimate D2E/DX2                !
 ! D73   D(22,21,24,26)        178.042          estimate D2E/DX2                !
 ! D74   D(22,21,24,27)        -61.8335         estimate D2E/DX2                !
 ! D75   D(23,21,24,25)        -58.0269         estimate D2E/DX2                !
 ! D76   D(23,21,24,26)         61.8522         estimate D2E/DX2                !
 ! D77   D(23,21,24,27)       -178.0233         estimate D2E/DX2                !
 ! D78   D(8,28,29,42)          82.0816         estimate D2E/DX2                !
 ! D79   D(30,28,29,42)        -38.1138         estimate D2E/DX2                !
 ! D80   D(31,28,29,42)       -158.6303         estimate D2E/DX2                !
 ! D81   D(28,29,42,39)        -97.9859         estimate D2E/DX2                !
 ! D82   D(34,32,33,35)        -59.186          estimate D2E/DX2                !
 ! D83   D(34,32,33,36)         81.7211         estimate D2E/DX2                !
 ! D84   D(34,32,33,39)       -168.9521         estimate D2E/DX2                !
 ! D85   D(33,32,34,37)       -150.4275         estimate D2E/DX2                !
 ! D86   D(33,32,34,38)        -12.9075         estimate D2E/DX2                !
 ! D87   D(33,32,34,40)        100.0283         estimate D2E/DX2                !
 ! D88   D(32,33,39,41)       -179.7274         estimate D2E/DX2                !
 ! D89   D(32,33,39,42)        -60.7404         estimate D2E/DX2                !
 ! D90   D(32,33,39,43)         61.3733         estimate D2E/DX2                !
 ! D91   D(35,33,39,41)         61.94           estimate D2E/DX2                !
 ! D92   D(35,33,39,42)       -179.073          estimate D2E/DX2                !
 ! D93   D(35,33,39,43)        -56.9593         estimate D2E/DX2                !
 ! D94   D(36,33,39,41)        -62.429          estimate D2E/DX2                !
 ! D95   D(36,33,39,42)         56.558          estimate D2E/DX2                !
 ! D96   D(36,33,39,43)        178.6717         estimate D2E/DX2                !
 ! D97   D(32,34,40,44)         58.644          estimate D2E/DX2                !
 ! D98   D(32,34,40,45)        -62.4662         estimate D2E/DX2                !
 ! D99   D(32,34,40,46)        177.7749         estimate D2E/DX2                !
 ! D100  D(37,34,40,44)        -56.1731         estimate D2E/DX2                !
 ! D101  D(37,34,40,45)       -177.2833         estimate D2E/DX2                !
 ! D102  D(37,34,40,46)         62.9578         estimate D2E/DX2                !
 ! D103  D(38,34,40,44)        178.9081         estimate D2E/DX2                !
 ! D104  D(38,34,40,45)         57.7978         estimate D2E/DX2                !
 ! D105  D(38,34,40,46)        -61.9611         estimate D2E/DX2                !
 ! D106  D(33,39,42,29)        -39.2583         estimate D2E/DX2                !
 ! D107  D(41,39,42,29)         80.0213         estimate D2E/DX2                !
 ! D108  D(43,39,42,29)       -163.1719         estimate D2E/DX2                !
 --------------------------------------------------------------------------------
 Trust Radius=3.00D-01 FncErr=1.00D-07 GrdErr=1.00D-06
 Number of steps in this run= 249 maximum allowed number of steps= 276.
 GradGradGradGradGradGradGradGradGradGradGradGradGradGradGradGradGradGrad

                          Input orientation:                          
 ---------------------------------------------------------------------
 Center     Atomic      Atomic             Coordinates (Angstroms)
 Number     Number       Type             X           Y           Z
 ---------------------------------------------------------------------
      1          6           0        0.035000   -0.965000   -0.211000
      2          6           0        1.374000   -0.982000   -0.135000
      3          6           0        0.709000    1.075000    0.137000
      4          7           0       -0.367000    0.341000   -0.034000
      5          1           0       -0.664000   -1.756000   -0.367000
      6          1           0        2.070000   -1.789000   -0.213000
      7          1           0        0.712000    2.132000    0.300000
      8          7           0        1.782000    0.316000    0.084000
      9          6           0       -1.760000    0.832000   -0.070000
     10          1           0       -1.760000    1.806000    0.398000
     11          1           0       -2.342000    0.168000    0.555000
     12          6           0       -2.314000    0.899000   -1.491000
     13          1           0       -2.264000   -0.087000   -1.945000
     14          1           0       -1.684000    1.553000   -2.088000
     15          6           0       -3.759000    1.404000   -1.506000
     16          1           0       -4.378000    0.749000   -0.897000
     17          1           0       -3.803000    2.388000   -1.044000
     18          6           0       -4.339000    1.481000   -2.920000
     19          1           0       -3.718000    2.136000   -3.529000
     20          1           0       -4.293000    0.497000   -3.382000
     21          6           0       -5.783000    1.986000   -2.945000
     22          1           0       -6.403000    1.332000   -2.336000
     23          1           0       -5.829000    2.970000   -2.483000
     24          6           0       -6.359000    2.061000   -4.359000
     25          1           0       -7.381000    2.422000   -4.343000
     26          1           0       -5.780000    2.735000   -4.983000
     27          1           0       -6.359000    1.086000   -4.835000
     28          6           0        3.170000    0.761000    0.238000
     29          1           0        3.612000    0.267000    1.091000
     30          1           0        3.723000    0.523000   -0.658000
     31          1           0        3.180000    1.828000    0.395000
     32          7           0        2.894177    0.600410    3.962082
     33         16           0        1.934177   -0.301590    3.090082
     34         16           0        2.462177    1.455410    5.204082
     35          8           0        1.258177   -1.341590    3.807082
     36          8           0        1.191177    0.418410    2.098082
     37          8           0        3.304177    2.605410    5.330082
     38          8           0        1.047177    1.611410    5.360082
     39          6           0        3.229177   -1.161590    2.150082
     40          6           0        2.961177    0.424410    6.618082
     41          9           0        2.649177   -2.001590    1.314082
     42          9           0        3.960177   -0.330590    1.445082
     43          9           0        4.022177   -1.853590    2.935082
     44          9           0        4.252177    0.176410    6.592082
     45          9           0        2.322177   -0.719590    6.633082
     46          9           0        2.692177    1.060410    7.741082
 ---------------------------------------------------------------------
                    Distance matrix (angstroms):
                    1          2          3          4          5
     1  C    0.000000
     2  C    1.341263   0.000000
     3  C    2.176460   2.178866   0.000000
     4  N    1.377886   2.188975   1.313687   0.000000
     5  H    1.067060   2.192338   3.186488   2.143947   0.000000
     6  H    2.195497   1.068527   3.190191   3.241591   2.738533
     7  H    3.211053   3.213171   1.069498   2.117422   4.177895
     8  N    2.186320   1.378125   1.315378   2.152382   3.237206
     9  C    2.543839   3.621709   2.489550   1.477439   2.826158
    10  H    3.357283   4.228355   2.588135   2.067196   3.804509
    11  H    2.742366   3.950602   3.210292   2.068206   2.714322
    12  C    3.260475   4.356402   3.438007   2.494999   3.321882
    13  H    3.010488   4.160789   3.810997   2.726484   2.799222
    14  H    3.580281   4.426262   3.302356   2.724399   3.866746
    15  C    4.656568   5.824116   4.771867   3.847391   4.567488
    16  H    4.783614   6.054957   5.201250   4.123027   4.511067
    17  H    5.163985   6.243758   4.845294   4.125095   5.242555
    18  C    5.696795   6.816228   5.915437   5.040375   5.522826
    19  H    5.891548   6.868015   5.844964   5.163938   5.871356
    20  H    5.560959   6.696666   6.143081   5.162065   5.228372
    21  C    7.073350   8.241831   7.243943   6.364982   6.844911
    22  H    7.158190   8.407183   7.534077   6.535639   6.807997
    23  H    7.418403   8.544859   7.293893   6.537789   7.313669
    24  C    8.200355   9.322087   8.434621   7.587364   7.933384
    25  H    9.140145  10.292935   9.345208   8.490833   8.853381
    26  H    8.383091   9.407386   8.430725   7.715206   8.224962
    27  H    8.152988   9.282560   8.641616   7.714188   7.776440
    28  C    3.606786   2.530374   2.483006   3.572220   4.626107
    29  H    4.000995   2.841077   3.160758   4.135643   4.949997
    30  H    4.001912   2.838372   3.165584   4.141328   4.952201
    31  H    4.249601   3.382105   2.596038   3.869938   5.310559
    32  N    5.295282   4.647692   4.430743   5.164421   6.079000
    33  S    3.865763   3.343338   3.480912   3.932967   4.562592
    34  S    6.408797   5.969162   5.375282   6.056703   7.150041
    35  O    4.216985   3.960143   4.428431   4.497357   4.614050
    36  O    2.929578   2.642201   2.123546   2.641909   3.774436
    37  O    7.357916   6.816320   6.003765   6.883202   8.199089
    38  O    6.220880   6.085106   5.261433   5.719262   6.860542
    39  C    3.976949   2.948819   3.925064   4.467715   4.673955
    40  C    7.558395   7.078222   6.892024   7.438677   8.166239
    41  F    3.199112   2.182998   3.822985   4.049985   3.723371
    42  F    4.307215   3.099888   3.775833   4.622032   5.167054
    43  F    5.156065   4.147037   5.232881   5.735551   5.733544
    44  F    8.085130   7.408066   7.418197   8.078914   8.736809
    45  F    7.220309   6.839213   6.929789   7.266808   7.680660
    46  F    8.625455   8.242675   7.858452   8.386180   9.216131
                    6          7          8          9         10
     6  H    0.000000
     7  H    4.181097   0.000000
     8  N    2.145269   2.118823   0.000000
     9  C    4.643166   2.817390   3.582700   0.000000
    10  H    5.288312   2.495328   3.855445   1.080602   0.000000
    11  H    4.887271   3.639950   4.153447   1.081779   1.745399
    12  C    5.298876   3.726211   4.426932   1.526645   2.167461
    13  H    4.967915   4.338267   4.544157   2.148069   3.054032
    14  H    5.364430   3.431997   4.273278   2.144281   2.499996
    15  C    6.770845   4.876624   5.866389   2.526911   2.789771
    16  H    6.963189   5.408660   6.252635   2.746769   3.106155
    17  H    7.254655   4.717743   6.062821   2.746573   2.567477
    18  C    7.687394   6.025347   6.917216   3.898069   4.214972
    19  H    7.739666   5.855438   6.827603   4.183164   4.400454
    20  H    7.467002   6.424980   6.996538   4.183020   4.734762
    21  C    9.131487   7.261981   8.318231   5.077585   5.233792
    22  H    9.275748   7.629661   8.595515   5.190588   5.408963
    23  H    9.497114   7.157654   8.459345   5.191375   5.119748
    24  C   10.151840   8.468197   9.437222   6.407555   6.621546
    25  H   11.140504   9.334784  10.392023   7.237560   7.379172
    26  H   10.239237   8.391648   9.418593   6.627170   6.780752
    27  H   10.033770   8.801215   9.542816   6.627258   7.003820
    28  C    2.813521   2.815182   1.465703   4.940122   5.042075
    29  H    2.881895   3.537500   2.089342   5.524991   5.630911
    30  H    2.876765   3.545810   2.088275   5.523089   5.729268
    31  H    3.832030   2.488466   2.082611   5.060814   4.940050
    32  N    4.880559   4.529736   4.044421   6.162198   5.984772
    33  S    3.625077   3.898799   3.072638   4.991802   5.033506
    34  S    6.326513   5.250801   5.289247   6.784641   6.406880
    35  O    4.125565   4.966262   4.108933   5.372676   5.535211
    36  O    3.314527   2.529644   2.101448   3.685252   3.677653
    37  O    7.180514   5.678488   5.922820   7.612605   7.114097
    38  O    6.608191   5.097822   5.482252   6.162265   5.704416
    39  C    2.705825   4.539463   2.923404   5.813351   6.063685
    40  C    7.235818   6.920464   6.640515   8.196712   7.930178
    41  F    1.647003   4.676279   2.763390   5.420863   5.897270
    42  F    2.906710   4.233936   2.648599   6.030549   6.195307
    43  F    3.704806   5.812560   4.225421   7.048155   7.298148
    44  F    7.411739   7.479805   6.962499   8.997745   8.784560
    45  F    6.933691   7.129668   6.652421   8.000182   7.868864
    46  F    8.471934   7.774259   7.746836   8.993723   8.619666
                   11         12         13         14         15
    11  H    0.000000
    12  C    2.172846   0.000000
    13  H    2.514182   1.086652   0.000000
    14  H    3.055591   1.086750   1.745408   0.000000
    15  C    2.789858   1.530776   2.156578   2.160220   0.000000
    16  H    2.567326   2.153005   2.503237   3.053282   1.087689
    17  H    3.101568   2.152685   3.050565   2.505458   1.087950
    18  C    4.217535   2.545857   2.777566   2.783241   1.530270
    19  H    4.737664   2.766736   3.092717   2.559986   2.151751
    20  H    4.406201   2.766573   2.553990   3.097814   2.151088
    21  C    5.234081   3.915309   4.204841   4.209957   2.550690
    22  H    5.119033   4.197789   4.392922   4.730677   2.772151
    23  H    5.407385   4.198610   4.726935   4.398288   2.773407
    24  C    6.623227   5.092906   5.216352   5.222177   3.915515
    25  H    7.379867   6.010651   6.182975   6.188376   4.712088
    26  H    7.005625   5.251487   5.436486   5.153190   4.236217
    27  H    6.784623   5.251603   5.147529   5.442400   4.235961
    28  C    5.552863   5.751760   5.917174   5.440483   7.173983
    29  H    5.978897   6.494892   6.623442   6.309315   7.897393
    30  H    6.195290   6.105787   6.154075   5.686954   7.581266
    31  H    5.768335   5.882523   6.227356   5.468035   7.207170
    32  N    6.262007   7.546547   7.872289   7.646609   8.649303
    33  S    4.993280   6.361976   6.559176   6.583558   7.513007
    34  S    6.808194   8.242911   8.707764   8.388967   9.150458
    35  O    5.080962   6.771290   6.860479   7.196322   7.806355
    36  O    3.863567   5.039716   5.342303   5.203578   6.202020
    37  O    7.785993   9.000161   9.548847   9.000967   9.902720
    38  O    6.054648   7.664357   8.198336   7.933263   8.383641
    39  C    5.945596   6.944805   6.935376   7.033466   8.293600
    40  C    8.059181   9.685553  10.044421   9.932132  10.588724
    41  F    5.495014   6.396486   6.198918   6.556348   7.785605
    42  F    6.384221   7.035465   7.091712   6.920066   8.444133
    43  F    7.089032   8.204517   8.151813   8.330466   9.533196
    44  F    8.940336  10.439015  10.742984  10.605518  11.457088
    45  F    7.712681   9.492875   9.747650   9.862626  10.379547
    46  F    8.819246  10.503295  10.940769  10.770535  11.280260
                   16         17         18         19         20
    16  H    0.000000
    17  H    1.743145   0.000000
    18  C    2.151714   2.151586   0.000000
    19  H    3.047424   2.499191   1.088828   0.000000
    20  H    2.499191   3.046674   1.088033   1.743145   0.000000
    21  C    2.774617   2.774131   1.529963   2.151228   2.151323
    22  H    2.551712   3.089401   2.150198   3.046127   2.498688
    23  H    3.090896   2.552278   2.151323   2.499198   3.046839
    24  C    4.198946   4.198725   2.547061   2.769369   2.769293
    25  H    4.867428   4.866892   3.487718   3.763238   3.763627
    26  H    4.754492   4.420934   2.811577   2.593214   3.127781
    27  H    4.421060   4.753948   2.811343   3.127781   2.593547
    28  C    7.632868   7.274159   8.177802   7.970286   8.298823
    29  H    8.247701   8.002443   8.987787   8.863772   9.085684
    30  H    8.107675   7.763240   8.427945   8.137130   8.466233
    31  H    7.743182   7.151686   8.224658   7.941980   8.478385
    32  N    8.747418   8.550352  10.022841  10.109166  10.276271
    33  S    7.539505   7.565694   8.868566   9.038871   9.016836
    34  S    9.192945   8.897230  10.595158  10.720285  10.966849
    35  O    7.633181   7.940929   9.195055   9.522293   9.267086
    36  O    6.332104   6.220432   7.542752   7.662518   7.753301
    37  O   10.061742   9.549249  11.302491  11.314356  11.750015
    38  O    8.326306   8.070909   9.878647  10.099400  10.304533
    39  C    8.414524   8.500192   9.485058   9.559777   9.483565
    40  C   10.509298  10.407559  12.057528  12.268016  12.354351
    41  F    7.863577   8.152278   8.882033   9.006444   8.745854
    42  F    8.727890   8.593787   9.550505   9.475229   9.596904
    43  F    9.592774   9.749748  10.738285  10.844885  10.703876
    44  F   11.440899  11.317542  12.883710  13.030733  13.137927
    45  F   10.185836  10.301092  11.852226  12.161663  12.064101
    46  F   11.166953  11.005793  12.777833  13.010073  13.146600
                   21         22         23         24         25
    21  C    0.000000
    22  H    1.087657   0.000000
    23  H    1.088033   1.741875   0.000000
    24  C    1.528659   2.150792   2.150943   0.000000
    25  H    2.167511   2.484478   2.483668   1.084002   0.000000
    26  H    2.171279   3.059926   2.511499   1.085768   1.752361
    27  H    2.171146   2.511464   3.059781   1.084989   1.752554
    28  C    9.580622   9.929443   9.657408  10.659468  11.621879
    29  H   10.368717  10.638552  10.450462  11.503990  12.450640
    30  H    9.886090  10.295924  10.027918  10.849404  11.852605
    31  H    9.566396   9.976887   9.526234  10.660550  11.590349
    32  N   11.176808  11.253380  11.101705  12.529765  13.336860
    33  S   10.060323  10.080650  10.100963  11.395062  12.224613
    34  S   11.604827  11.638704  11.407402  13.024302  13.746607
    35  O   10.307359  10.177385  10.410717  11.674070  12.458885
    36  O    8.748095   8.841225   8.762409  10.069617  10.907985
    37  O   12.305992  12.434616  12.024645  13.694951  14.414408
    38  O   10.759462  10.715077  10.518627  12.227598  12.877928
    39  C   10.820652  10.914292  10.981168  12.028565  12.945196
    40  C   13.051886  12.987960  12.906469  14.492773  15.201852
    41  F   10.253890  10.313963  10.536319  11.394549  12.335930
    42  F   10.934757  11.155995  11.052227  12.078596  13.026931
    43  F   12.060652  12.108535  12.233901  13.277669  14.187445
    44  F   13.961924  13.949152  13.848877  15.364731  16.122949
    45  F   12.835644  12.679991  12.773320  14.280069  14.983177
    46  F   13.670321  13.577319  13.445774  15.143876  15.790752
                   26         27         28         29         30
    26  H    0.000000
    27  H    1.753952   0.000000
    28  C   10.547892  10.800129   0.000000
    29  H   11.454002  11.627944   1.080282   0.000000
    30  H   10.672656  10.927535   1.079476   1.771118   0.000000
    31  H   10.489382  10.903944   1.078535   1.762884   1.762579
    32  N   12.641690  12.776765   3.737734   2.978178   4.694475
    33  S   11.571692  11.554614   3.284924   2.671088   4.234141
    34  S   13.166149  13.369098   5.064108   4.433041   6.068201
    35  O   11.975812  11.772857   4.562269   3.937657   5.430378
    36  O   10.203216  10.272219   2.737337   2.626313   3.743935
    37  O   13.744043  14.107249   5.417485   4.851054   6.353658
    38  O   12.443960  12.612185   5.609393   5.158567   6.675475
    39  C   12.133818  12.073780   2.712178   1.819087   3.311650
    40  C   14.708233  14.780950   6.392366   5.567493   7.316520
    41  F   11.538611  11.335417   3.010168   2.474529   3.378721
    42  F   12.066032  12.162712   1.809142   0.776991   2.282065
    43  F   13.410215  13.296022   3.851823   2.840033   4.318324
    44  F   15.529761  15.620584   6.472033   5.538947   7.277626
    45  F   14.577820  14.496203   6.618763   5.775091   7.527696
    46  F   15.378046  15.494589   7.524241   6.760115   8.479150
                   31         32         33         34         35
    31  H    0.000000
    32  N    3.783219   0.000000
    33  S    3.653860   1.579743   0.000000
    34  S    4.876614   1.568507   2.799076   0.000000
    35  O    5.038056   2.543990   1.432712   3.350289   0.000000
    36  O    2.973693   2.531369   1.433357   3.512555   2.454133
    37  O    4.997481   2.461615   3.917288   1.430853   4.699410
    38  O    5.408131   2.527436   3.098264   1.432095   3.343133
    39  C    3.467042   2.549552   1.816652   4.094373   2.581257
    40  C    6.383157   2.662668   3.745476   1.819714   3.731044
    41  F    3.973946   3.720529   2.560352   5.207487   2.930108
    42  F    2.524056   2.887630   2.609893   4.423108   3.728534
    43  F    4.551416   2.889503   2.606237   4.304816   2.943166
    44  F    6.502395   2.990124   4.226773   2.601247   4.361718
    45  F    6.792624   3.033781   3.588609   2.606198   3.083060
    46  F    7.402167   3.812249   4.905243   2.577847   4.827247
                   36         37         38         39         40
    36  O    0.000000
    37  O    4.437743   0.000000
    38  O    3.476295   2.466371   0.000000
    39  C    2.579253   4.930346   4.770194   0.000000
    40  C    4.854208   2.556043   2.579715   4.748710   0.000000
    41  F    2.932033   6.146684   5.655996   1.319430   5.840825
    42  F    2.941899   4.913620   5.252062   1.312230   5.322401
    43  F    3.725200   5.112165   5.170829   1.312988   4.458643
    44  F    5.442823   2.896789   3.721434   4.750593   1.314862
    45  F    4.810450   3.703749   2.946136   4.595139   1.310451
    46  F    5.874403   2.928223   2.945978   6.040276   1.318327
                   41         42         43         44         45
    41  F    0.000000
    42  F    2.127939   0.000000
    43  F    2.129477   2.131542   0.000000
    44  F    5.930479   5.180147   4.188968   0.000000
    45  F    5.481078   5.454329   4.225063   2.128238   0.000000
    46  F    7.119271   6.571326   5.775633   2.129614   2.129076
                   46
    46  F    0.000000
 Stoichiometry    C12H19F6N3O4S2
 Framework group  C1[X(C12H19F6N3O4S2)]
 Deg. of freedom   132
 Full point group                 C1      NOp   1
 Largest Abelian subgroup         C1      NOp   1
 Largest concise Abelian subgroup C1      NOp   1
                         Standard orientation:                         
 ---------------------------------------------------------------------
 Center     Atomic      Atomic             Coordinates (Angstroms)
 Number     Number       Type             X           Y           Z
 ---------------------------------------------------------------------
      1          6           0       -2.151153    1.558247   -0.876858
      2          6           0       -1.204202    2.320148   -0.309604
      3          6           0       -1.647251    0.673496    1.046753
      4          7           0       -2.415837    0.522235   -0.007842
      5          1           0       -2.652707    1.652921   -1.813928
      6          1           0       -0.720244    3.208397   -0.653909
      7          1           0       -1.628845    0.018974    1.892382
      8          7           0       -0.899220    1.746230    0.905646
      9          6           0       -3.415810   -0.546189   -0.211194
     10          1           0       -3.165103   -1.343119    0.474188
     11          1           0       -3.273290   -0.920950   -1.215926
     12          6           0       -4.843586   -0.052877    0.009586
     13          1           0       -5.049535    0.771752   -0.667455
     14          1           0       -4.932496    0.338869    1.019365
     15          6           0       -5.863896   -1.172410   -0.211520
     16          1           0       -5.758690   -1.564321   -1.220680
     17          1           0       -5.647836   -1.997241    0.464208
     18          6           0       -7.304732   -0.704119    0.003933
     19          1           0       -7.408611   -0.311014    1.013995
     20          1           0       -7.519465    0.121905   -0.670893
     21          6           0       -8.331792   -1.817009   -0.213808
     22          1           0       -8.227348   -2.210044   -1.222575
     23          1           0       -8.117059   -2.643033    0.461018
     24          6           0       -9.769775   -1.345276    0.001762
     25          1           0      -10.472059   -2.155195   -0.159140
     26          1           0       -9.914533   -0.978186    1.013287
     27          1           0      -10.026313   -0.542981   -0.682133
     28          6           0        0.092443    2.246416    1.862047
     29          1           0        1.066995    2.255037    1.396018
     30          1           0       -0.181115    3.243698    2.171666
     31          1           0        0.110061    1.594422    2.721018
     32          7           0        2.685808   -0.085148    0.517086
     33         16           0        1.491185    0.345304   -0.422689
     34         16           0        3.235230   -1.545021    0.681760
     35          8           0        1.676642    0.057239   -1.813836
     36          8           0        0.191442    0.121889    0.138796
     37          8           0        3.774016   -1.725675    1.994929
     38          8           0        2.396072   -2.565890    0.129911
     39          6           0        1.739053    2.140103   -0.290460
     40          6           0        4.716532   -1.558235   -0.375088
     41          9           0        0.817266    2.742789   -1.017078
     42          9           0        1.619651    2.564011    0.945660
     43          9           0        2.915778    2.503735   -0.745462
     44          9           0        5.578825   -0.641405    0.005354
     45          9           0        4.416442   -1.344886   -1.632748
     46          9           0        5.307587   -2.733344   -0.287011
 ---------------------------------------------------------------------
 Rotational constants (GHZ):      0.3174130      0.0666771      0.0596894
 Standard basis: 6-311+G(d) (5D, 7F)
 There are   667 symmetry adapted basis functions of A   symmetry.
 Integral buffers will be    131072 words long.
 Raffenetti 2 integral format.
 Two-electron integral symmetry is turned on.
   667 basis functions,  1095 primitive gaussians,   694 cartesian basis functions
   115 alpha electrons      115 beta electrons
       nuclear repulsion energy      3409.7703689485 Hartrees.
 NAtoms=   46 NActive=   46 NUniq=   46 SFac= 7.50D-01 NAtFMM=   80 NAOKFM=F Big=F
 One-electron integrals computed using PRISM.
 PrsmSu:  requested number of processors reduced to:   8 ShMem   1 Linda.
 NBasis=   667 RedAO= T  NBF=   667
 NBsUse=   667 1.00D-06 NBFU=   667
 Harris functional with IExCor= 1009 diagonalized for initial guess.
 ExpMin= 4.05D-02 ExpMax= 9.34D+04 ExpMxC= 3.17D+03 IAcc=2 IRadAn=         0 AccDes= 0.00D+00
 HarFok:  IExCor= 1009 AccDes= 0.00D+00 IRadAn=         0 IDoV= 1
 ScaDFX=  1.000000  1.000000  1.000000  1.000000
 FoFCou: FMM=F IPFlag=           0 FMFlag=      100000 FMFlg1=           0
         NFxFlg=           0 DoJE=T BraDBF=F KetDBF=T FulRan=T
         Omega=  0.000000  0.000000  1.000000  0.000000  0.000000 ICntrl=     500 IOpCl=  0
         NMat0=    1 NMatS0=    1 NMatT0=    0 NMatD0=    1 NMtDS0=    0 NMtDT0=    0
         I1Cent=           4 NGrid=           0.
 Petite list used in FoFCou.
 Initial guess orbital symmetries:
       Occupied  (A) (A) (A) (A) (A) (A) (A) (A) (A) (A) (A) (A)
                 (A) (A) (A) (A) (A) (A) (A) (A) (A) (A) (A) (A)
                 (A) (A) (A) (A) (A) (A) (A) (A) (A) (A) (A) (A)
                 (A) (A) (A) (A) (A) (A) (A) (A) (A) (A) (A) (A)
                 (A) (A) (A) (A) (A) (A) (A) (A) (A) (A) (A) (A)
                 (A) (A) (A) (A) (A) (A) (A) (A) (A) (A) (A) (A)
                 (A) (A) (A) (A) (A) (A) (A) (A) (A) (A) (A) (A)
                 (A) (A) (A) (A) (A) (A) (A) (A) (A) (A) (A) (A)
                 (A) (A) (A) (A) (A) (A) (A) (A) (A) (A) (A) (A)
                 (A) (A) (A) (A) (A) (A) (A)
       Virtual   (A) (A) (A) (A) (A) (A) (A) (A) (A) (A) (A) (A)
                 (A) (A) (A) (A) (A) (A) (A) (A) (A) (A) (A) (A)
                 (A) (A) (A) (A) (A) (A) (A) (A) (A) (A) (A) (A)
                 (A) (A) (A) (A) (A) (A) (A) (A) (A) (A) (A) (A)
                 (A) (A) (A) (A) (A) (A) (A) (A) (A) (A) (A) (A)
                 (A) (A) (A) (A) (A) (A) (A) (A) (A) (A) (A) (A)
                 (A) (A) (A) (A) (A) (A) (A) (A) (A) (A) (A) (A)
                 (A) (A) (A) (A) (A) (A) (A) (A) (A) (A) (A) (A)
                 (A) (A) (A) (A) (A) (A) (A) (A) (A) (A) (A) (A)
                 (A) (A) (A) (A) (A) (A) (A) (A) (A) (A) (A) (A)
                 (A) (A) (A) (A) (A) (A) (A) (A) (A) (A) (A) (A)
                 (A) (A) (A) (A) (A) (A) (A) (A) (A) (A) (A) (A)
                 (A) (A) (A) (A) (A) (A) (A) (A) (A) (A) (A) (A)
                 (A) (A) (A) (A) (A) (A) (A) (A) (A) (A) (A) (A)
                 (A) (A) (A) (A) (A) (A) (A) (A) (A) (A) (A) (A)
                 (A) (A) (A) (A) (A) (A) (A) (A) (A) (A) (A) (A)
                 (A) (A) (A) (A) (A) (A) (A) (A) (A) (A) (A) (A)
                 (A) (A) (A) (A) (A) (A) (A) (A) (A) (A) (A) (A)
                 (A) (A) (A) (A) (A) (A) (A) (A) (A) (A) (A) (A)
                 (A) (A) (A) (A) (A) (A) (A) (A) (A) (A) (A) (A)
                 (A) (A) (A) (A) (A) (A) (A) (A) (A) (A) (A) (A)
                 (A) (A) (A) (A) (A) (A) (A) (A) (A) (A) (A) (A)
                 (A) (A) (A) (A) (A) (A) (A) (A) (A) (A) (A) (A)
                 (A) (A) (A) (A) (A) (A) (A) (A) (A) (A) (A) (A)
                 (A) (A) (A) (A) (A) (A) (A) (A) (A) (A) (A) (A)
                 (A) (A) (A) (A) (A) (A) (A) (A) (A) (A) (A) (A)
                 (A) (A) (A) (A) (A) (A) (A) (A) (A) (A) (A) (A)
                 (A) (A) (A) (A) (A) (A) (A) (A) (A) (A) (A) (A)
                 (A) (A) (A) (A) (A) (A) (A) (A) (A) (A) (A) (A)
                 (A) (A) (A) (A) (A) (A) (A) (A) (A) (A) (A) (A)
                 (A) (A) (A) (A) (A) (A) (A) (A) (A) (A) (A) (A)
                 (A) (A) (A) (A) (A) (A) (A) (A) (A) (A) (A) (A)
                 (A) (A) (A) (A) (A) (A) (A) (A) (A) (A) (A) (A)
                 (A) (A) (A) (A) (A) (A) (A) (A) (A) (A) (A) (A)
                 (A) (A) (A) (A) (A) (A) (A) (A) (A) (A) (A) (A)
                 (A) (A) (A) (A) (A) (A) (A) (A) (A) (A) (A) (A)
                 (A) (A) (A) (A) (A) (A) (A) (A) (A) (A) (A) (A)
                 (A) (A) (A) (A) (A) (A) (A) (A) (A) (A) (A) (A)
                 (A) (A) (A) (A) (A) (A) (A) (A) (A) (A) (A) (A)
                 (A) (A) (A) (A) (A) (A) (A) (A) (A) (A) (A) (A)
                 (A) (A) (A) (A) (A) (A) (A) (A) (A) (A) (A) (A)
                 (A) (A) (A) (A) (A) (A) (A) (A) (A) (A) (A) (A)
                 (A) (A) (A) (A) (A) (A) (A) (A) (A) (A) (A) (A)
                 (A) (A) (A) (A) (A) (A) (A) (A) (A) (A) (A) (A)
                 (A) (A) (A) (A) (A) (A) (A) (A) (A) (A) (A) (A)
                 (A) (A) (A) (A) (A) (A) (A) (A) (A) (A) (A) (A)
 The electronic state of the initial guess is 1-A.
 Requested convergence on RMS density matrix=1.00D-08 within 128 cycles.
 Requested convergence on MAX density matrix=1.00D-06.
 Requested convergence on             energy=1.00D-06.
 No special actions if energy rises.
 SCF Done:  E(RM062X) =  -2328.53264388     A.U. after   15 cycles
             Convg  =    0.4421D-08             -V/T =  2.0009

 **********************************************************************

            Population analysis using the SCF density.

 **********************************************************************

 Orbital symmetries:
       Occupied  (A) (A) (A) (A) (A) (A) (A) (A) (A) (A) (A) (A)
                 (A) (A) (A) (A) (A) (A) (A) (A) (A) (A) (A) (A)
                 (A) (A) (A) (A) (A) (A) (A) (A) (A) (A) (A) (A)
                 (A) (A) (A) (A) (A) (A) (A) (A) (A) (A) (A) (A)
                 (A) (A) (A) (A) (A) (A) (A) (A) (A) (A) (A) (A)
                 (A) (A) (A) (A) (A) (A) (A) (A) (A) (A) (A) (A)
                 (A) (A) (A) (A) (A) (A) (A) (A) (A) (A) (A) (A)
                 (A) (A) (A) (A) (A) (A) (A) (A) (A) (A) (A) (A)
                 (A) (A) (A) (A) (A) (A) (A) (A) (A) (A) (A) (A)
                 (A) (A) (A) (A) (A) (A) (A)
       Virtual   (A) (A) (A) (A) (A) (A) (A) (A) (A) (A) (A) (A)
                 (A) (A) (A) (A) (A) (A) (A) (A) (A) (A) (A) (A)
                 (A) (A) (A) (A) (A) (A) (A) (A) (A) (A) (A) (A)
                 (A) (A) (A) (A) (A) (A) (A) (A) (A) (A) (A) (A)
                 (A) (A) (A) (A) (A) (A) (A) (A) (A) (A) (A) (A)
                 (A) (A) (A) (A) (A) (A) (A) (A) (A) (A) (A) (A)
                 (A) (A) (A) (A) (A) (A) (A) (A) (A) (A) (A) (A)
                 (A) (A) (A) (A) (A) (A) (A) (A) (A) (A) (A) (A)
                 (A) (A) (A) (A) (A) (A) (A) (A) (A) (A) (A) (A)
                 (A) (A) (A) (A) (A) (A) (A) (A) (A) (A) (A) (A)
                 (A) (A) (A) (A) (A) (A) (A) (A) (A) (A) (A) (A)
                 (A) (A) (A) (A) (A) (A) (A) (A) (A) (A) (A) (A)
                 (A) (A) (A) (A) (A) (A) (A) (A) (A) (A) (A) (A)
                 (A) (A) (A) (A) (A) (A) (A) (A) (A) (A) (A) (A)
                 (A) (A) (A) (A) (A) (A) (A) (A) (A) (A) (A) (A)
                 (A) (A) (A) (A) (A) (A) (A) (A) (A) (A) (A) (A)
                 (A) (A) (A) (A) (A) (A) (A) (A) (A) (A) (A) (A)
                 (A) (A) (A) (A) (A) (A) (A) (A) (A) (A) (A) (A)
                 (A) (A) (A) (A) (A) (A) (A) (A) (A) (A) (A) (A)
                 (A) (A) (A) (A) (A) (A) (A) (A) (A) (A) (A) (A)
                 (A) (A) (A) (A) (A) (A) (A) (A) (A) (A) (A) (A)
                 (A) (A) (A) (A) (A) (A) (A) (A) (A) (A) (A) (A)
                 (A) (A) (A) (A) (A) (A) (A) (A) (A) (A) (A) (A)
                 (A) (A) (A) (A) (A) (A) (A) (A) (A) (A) (A) (A)
                 (A) (A) (A) (A) (A) (A) (A) (A) (A) (A) (A) (A)
                 (A) (A) (A) (A) (A) (A) (A) (A) (A) (A) (A) (A)
                 (A) (A) (A) (A) (A) (A) (A) (A) (A) (A) (A) (A)
                 (A) (A) (A) (A) (A) (A) (A) (A) (A) (A) (A) (A)
                 (A) (A) (A) (A) (A) (A) (A) (A) (A) (A) (A) (A)
                 (A) (A) (A) (A) (A) (A) (A) (A) (A) (A) (A) (A)
                 (A) (A) (A) (A) (A) (A) (A) (A) (A) (A) (A) (A)
                 (A) (A) (A) (A) (A) (A) (A) (A) (A) (A) (A) (A)
                 (A) (A) (A) (A) (A) (A) (A) (A) (A) (A) (A) (A)
                 (A) (A) (A) (A) (A) (A) (A) (A) (A) (A) (A) (A)
                 (A) (A) (A) (A) (A) (A) (A) (A) (A) (A) (A) (A)
                 (A) (A) (A) (A) (A) (A) (A) (A) (A) (A) (A) (A)
                 (A) (A) (A) (A) (A) (A) (A) (A) (A) (A) (A) (A)
                 (A) (A) (A) (A) (A) (A) (A) (A) (A) (A) (A) (A)
                 (A) (A) (A) (A) (A) (A) (A) (A) (A) (A) (A) (A)
                 (A) (A) (A) (A) (A) (A) (A) (A) (A) (A) (A) (A)
                 (A) (A) (A) (A) (A) (A) (A) (A) (A) (A) (A) (A)
                 (A) (A) (A) (A) (A) (A) (A) (A) (A) (A) (A) (A)
                 (A) (A) (A) (A) (A) (A) (A) (A) (A) (A) (A) (A)
                 (A) (A) (A) (A) (A) (A) (A) (A) (A) (A) (A) (A)
                 (A) (A) (A) (A) (A) (A) (A) (A) (A) (A) (A) (A)
                 (A) (A) (A) (A) (A) (A) (A) (A) (A) (A) (A) (A)
 The electronic state is 1-A.
 Alpha  occ. eigenvalues --  -90.14497 -90.10809 -25.41759 -25.35363 -25.33941
 Alpha  occ. eigenvalues --  -25.27123 -25.27076 -25.26869 -19.63697 -19.63442
 Alpha  occ. eigenvalues --  -19.60380 -19.59999 -14.86031 -14.85004 -14.75191
 Alpha  occ. eigenvalues --  -10.87493 -10.78996 -10.65789 -10.62774 -10.61257
 Alpha  occ. eigenvalues --  -10.60746 -10.57579 -10.56309 -10.55299 -10.54752
 Alpha  occ. eigenvalues --  -10.53514 -10.51503  -8.48535  -8.44890  -6.40768
 Alpha  occ. eigenvalues --   -6.40722  -6.40700  -6.37150  -6.37087  -6.37023
 Alpha  occ. eigenvalues --   -1.67732  -1.52011  -1.47805  -1.45570  -1.37792
 Alpha  occ. eigenvalues --   -1.37507  -1.28990  -1.24807  -1.22216  -1.16276
 Alpha  occ. eigenvalues --   -1.12569  -1.09400  -1.05840  -1.03860  -0.95181
 Alpha  occ. eigenvalues --   -0.92672  -0.91179  -0.90465  -0.85983  -0.85167
 Alpha  occ. eigenvalues --   -0.82894  -0.81729  -0.80317  -0.78023  -0.77581
 Alpha  occ. eigenvalues --   -0.75046  -0.74047  -0.72734  -0.71824  -0.71280
 Alpha  occ. eigenvalues --   -0.69748  -0.69463  -0.69199  -0.68839  -0.66525
 Alpha  occ. eigenvalues --   -0.65473  -0.64692  -0.62201  -0.61391  -0.60636
 Alpha  occ. eigenvalues --   -0.59642  -0.59207  -0.58903  -0.57472  -0.57141
 Alpha  occ. eigenvalues --   -0.56793  -0.56677  -0.55652  -0.55251  -0.54194
 Alpha  occ. eigenvalues --   -0.53719  -0.53535  -0.53187  -0.52684  -0.52150
 Alpha  occ. eigenvalues --   -0.51903  -0.50453  -0.50204  -0.49983  -0.49359
 Alpha  occ. eigenvalues --   -0.49176  -0.47611  -0.46013  -0.45041  -0.44525
 Alpha  occ. eigenvalues --   -0.43987  -0.43352  -0.42869  -0.41460  -0.41308
 Alpha  occ. eigenvalues --   -0.40824  -0.40705  -0.40249  -0.38465  -0.38176
 Alpha  occ. eigenvalues --   -0.36597  -0.35315  -0.34214  -0.33725  -0.29148
 Alpha virt. eigenvalues --   -0.01829  -0.00815  -0.00458   0.00109   0.00983
 Alpha virt. eigenvalues --    0.01406   0.01842   0.02133   0.02481   0.02909
 Alpha virt. eigenvalues --    0.03280   0.03334   0.03804   0.04182   0.04843
 Alpha virt. eigenvalues --    0.05046   0.05444   0.05529   0.05901   0.06212
 Alpha virt. eigenvalues --    0.06574   0.06953   0.07250   0.07343   0.07864
 Alpha virt. eigenvalues --    0.08040   0.08289   0.08379   0.08780   0.09171
 Alpha virt. eigenvalues --    0.09456   0.09508   0.10015   0.10236   0.10761
 Alpha virt. eigenvalues --    0.11173   0.11491   0.11603   0.12085   0.12359
 Alpha virt. eigenvalues --    0.12691   0.12962   0.13196   0.13382   0.13788
 Alpha virt. eigenvalues --    0.14108   0.14388   0.14863   0.15146   0.15229
 Alpha virt. eigenvalues --    0.15650   0.15997   0.16110   0.16290   0.16820
 Alpha virt. eigenvalues --    0.17318   0.17435   0.17886   0.18169   0.18334
 Alpha virt. eigenvalues --    0.18727   0.19058   0.19277   0.19797   0.19954
 Alpha virt. eigenvalues --    0.20457   0.20543   0.20926   0.21016   0.21447
 Alpha virt. eigenvalues --    0.21692   0.21832   0.21918   0.22687   0.22887
 Alpha virt. eigenvalues --    0.23083   0.23577   0.23907   0.24218   0.24330
 Alpha virt. eigenvalues --    0.24676   0.24966   0.25178   0.25524   0.25884
 Alpha virt. eigenvalues --    0.26055   0.26563   0.26950   0.27338   0.27418
 Alpha virt. eigenvalues --    0.27829   0.28154   0.28433   0.28516   0.28824
 Alpha virt. eigenvalues --    0.29366   0.29390   0.29671   0.29922   0.30003
 Alpha virt. eigenvalues --    0.30285   0.30916   0.31036   0.31501   0.31691
 Alpha virt. eigenvalues --    0.31987   0.32174   0.32793   0.32830   0.33389
 Alpha virt. eigenvalues --    0.33832   0.34318   0.34395   0.34949   0.35033
 Alpha virt. eigenvalues --    0.35439   0.35851   0.36015   0.36424   0.36648
 Alpha virt. eigenvalues --    0.37373   0.37597   0.37742   0.38002   0.38636
 Alpha virt. eigenvalues --    0.38911   0.39128   0.39307   0.40065   0.40509
 Alpha virt. eigenvalues --    0.41061   0.41181   0.41561   0.42370   0.42431
 Alpha virt. eigenvalues --    0.42768   0.42937   0.43115   0.43628   0.43715
 Alpha virt. eigenvalues --    0.44491   0.44797   0.44966   0.45967   0.46464
 Alpha virt. eigenvalues --    0.46783   0.47222   0.47682   0.47835   0.48493
 Alpha virt. eigenvalues --    0.49178   0.49638   0.50606   0.51053   0.51422
 Alpha virt. eigenvalues --    0.51486   0.52072   0.53346   0.53681   0.54141
 Alpha virt. eigenvalues --    0.54791   0.55121   0.55311   0.55452   0.56519
 Alpha virt. eigenvalues --    0.57444   0.57793   0.58661   0.58799   0.59492
 Alpha virt. eigenvalues --    0.60557   0.61201   0.61838   0.62114   0.62345
 Alpha virt. eigenvalues --    0.63216   0.63662   0.64502   0.65407   0.65792
 Alpha virt. eigenvalues --    0.66515   0.66889   0.67924   0.68518   0.69096
 Alpha virt. eigenvalues --    0.69439   0.69706   0.69956   0.70595   0.70876
 Alpha virt. eigenvalues --    0.71104   0.71330   0.71812   0.72606   0.72987
 Alpha virt. eigenvalues --    0.73307   0.73720   0.74317   0.75343   0.75645
 Alpha virt. eigenvalues --    0.76669   0.77042   0.77927   0.78364   0.78863
 Alpha virt. eigenvalues --    0.79892   0.79953   0.80746   0.81091   0.82254
 Alpha virt. eigenvalues --    0.82510   0.84179   0.85368   0.86391   0.87949
 Alpha virt. eigenvalues --    0.88528   0.89056   0.90009   0.91610   0.92170
 Alpha virt. eigenvalues --    0.93332   0.95246   0.97026   0.98024   1.00020
 Alpha virt. eigenvalues --    1.01457   1.02041   1.02702   1.03592   1.04180
 Alpha virt. eigenvalues --    1.04997   1.05428   1.05513   1.06876   1.07698
 Alpha virt. eigenvalues --    1.08844   1.09638   1.10336   1.11051   1.11399
 Alpha virt. eigenvalues --    1.12216   1.13551   1.14548   1.15443   1.17044
 Alpha virt. eigenvalues --    1.17802   1.18396   1.18676   1.20212   1.20754
 Alpha virt. eigenvalues --    1.21893   1.22018   1.22683   1.23306   1.24647
 Alpha virt. eigenvalues --    1.25197   1.25996   1.26488   1.27466   1.27748
 Alpha virt. eigenvalues --    1.27839   1.28714   1.29702   1.30570   1.32030
 Alpha virt. eigenvalues --    1.32850   1.34974   1.35300   1.35845   1.36499
 Alpha virt. eigenvalues --    1.37923   1.39095   1.40038   1.40242   1.41137
 Alpha virt. eigenvalues --    1.44247   1.45332   1.46097   1.46586   1.47253
 Alpha virt. eigenvalues --    1.47392   1.48244   1.48871   1.49304   1.49694
 Alpha virt. eigenvalues --    1.50667   1.51396   1.51908   1.52530   1.53489
 Alpha virt. eigenvalues --    1.53985   1.55474   1.55951   1.56371   1.57126
 Alpha virt. eigenvalues --    1.57612   1.57733   1.57986   1.58825   1.59897
 Alpha virt. eigenvalues --    1.61394   1.61732   1.62427   1.64163   1.64585
 Alpha virt. eigenvalues --    1.65648   1.67973   1.68581   1.69071   1.70705
 Alpha virt. eigenvalues --    1.70745   1.71245   1.73353   1.74742   1.75177
 Alpha virt. eigenvalues --    1.76470   1.77562   1.77810   1.78534   1.79071
 Alpha virt. eigenvalues --    1.80418   1.81562   1.82574   1.83210   1.84469
 Alpha virt. eigenvalues --    1.85940   1.86514   1.86835   1.87315   1.88056
 Alpha virt. eigenvalues --    1.89051   1.89973   1.90696   1.91777   1.93810
 Alpha virt. eigenvalues --    1.95459   1.96996   1.98161   1.99899   1.99987
 Alpha virt. eigenvalues --    2.00659   2.01311   2.03059   2.03336   2.05824
 Alpha virt. eigenvalues --    2.07555   2.07730   2.09588   2.10950   2.11503
 Alpha virt. eigenvalues --    2.12658   2.15570   2.19740   2.22992   2.24893
 Alpha virt. eigenvalues --    2.26933   2.27287   2.29061   2.29826   2.31238
 Alpha virt. eigenvalues --    2.32930   2.37612   2.40880   2.46006   2.48983
 Alpha virt. eigenvalues --    2.50201   2.51812   2.53114   2.54121   2.54201
 Alpha virt. eigenvalues --    2.55455   2.55932   2.58116   2.59457   2.61024
 Alpha virt. eigenvalues --    2.61809   2.62406   2.64073   2.65313   2.65977
 Alpha virt. eigenvalues --    2.66754   2.67743   2.69070   2.69869   2.70989
 Alpha virt. eigenvalues --    2.73067   2.73962   2.74821   2.84470   2.85824
 Alpha virt. eigenvalues --    2.87084   2.87716   2.89726   2.91594   2.92713
 Alpha virt. eigenvalues --    2.93480   2.94007   2.95642   2.95833   2.96478
 Alpha virt. eigenvalues --    2.96983   3.01780   3.02046   3.02725   3.03794
 Alpha virt. eigenvalues --    3.04333   3.05017   3.06425   3.06575   3.07801
 Alpha virt. eigenvalues --    3.08019   3.08484   3.12271   3.14720   3.16160
 Alpha virt. eigenvalues --    3.16282   3.16682   3.18347   3.18598   3.20472
 Alpha virt. eigenvalues --    3.22344   3.23375   3.24341   3.25591   3.27870
 Alpha virt. eigenvalues --    3.28206   3.29510   3.30140   3.32617   3.41169
 Alpha virt. eigenvalues --    3.45036   3.45754   3.50366   3.54711   3.56550
 Alpha virt. eigenvalues --    3.58298   3.61291   3.62944   3.64087   3.68110
 Alpha virt. eigenvalues --    3.71001   3.71851   3.73542   3.74778   3.78108
 Alpha virt. eigenvalues --    3.79027   3.80003   3.80494   3.81137   3.82554
 Alpha virt. eigenvalues --    3.85056   3.85391   3.85631   3.86329   3.88139
 Alpha virt. eigenvalues --    3.88713   3.88752   3.90580   3.92231   3.92767
 Alpha virt. eigenvalues --    3.97642   3.98258   3.99650   4.01789   4.05639
 Alpha virt. eigenvalues --    4.11409   4.12412   4.15669   4.18009   4.19119
 Alpha virt. eigenvalues --    4.21975   4.25400   4.26162   4.33122   4.33441
 Alpha virt. eigenvalues --    4.40117   4.42666   4.50851   4.70494   4.71449
 Alpha virt. eigenvalues --    4.89993   4.90190   4.96476   5.01809   5.03122
 Alpha virt. eigenvalues --    5.03269   5.18691   5.19231   5.21018   5.21582
 Alpha virt. eigenvalues --    5.21866   5.26467   5.27052   5.31535   5.32497
 Alpha virt. eigenvalues --    5.35792   5.40860   5.49416   5.58536   6.39856
 Alpha virt. eigenvalues --    6.44040   6.45211   6.48119   6.49123   6.50259
 Alpha virt. eigenvalues --    6.50734   6.52878   6.54126   6.55190   6.56198
 Alpha virt. eigenvalues --    6.57771   6.60297   6.66375   6.89449   6.93553
 Alpha virt. eigenvalues --    6.94419   6.98283   8.39256   8.48324  17.60102
 Alpha virt. eigenvalues --   17.62378  17.66329  17.69478  17.76788  17.78465
 Alpha virt. eigenvalues --   23.51407  23.57759  23.60860  23.63439  23.70132
 Alpha virt. eigenvalues --   23.73827  23.76090  23.78393  23.82440  23.83072
 Alpha virt. eigenvalues --   23.97877  24.23129  35.54730  35.58095  35.70442
 Alpha virt. eigenvalues --   50.01042  50.02705  50.06778  50.08746  66.84263
 Alpha virt. eigenvalues --   66.87776  66.90066  66.90988  66.91529  66.95883
 Alpha virt. eigenvalues --  189.65955 189.78252
          Condensed to atoms (all electrons):
              1          2          3          4          5          6
     1  C   10.212971  -3.940139   0.594979  -0.178938   0.325308   0.034539
     2  C   -3.940139  10.763903  -0.915049   0.161878   0.036513   0.373129
     3  C    0.594979  -0.915049   8.308497   0.002068  -0.004276  -0.002464
     4  N   -0.178938   0.161878   0.002068   7.749877  -0.059275   0.037364
     5  H    0.325308   0.036513  -0.004276  -0.059275   0.396653  -0.000816
     6  H    0.034539   0.373129  -0.002464   0.037364  -0.000816   0.401700
     7  H   -0.018914   0.021930   0.396482  -0.045970  -0.000064   0.000030
     8  N    0.180962  -0.158091   0.070726  -0.828030   0.028978  -0.109931
     9  C   -0.348503   0.311569  -0.497437  -0.203036  -0.049114  -0.006296
    10  H   -0.023630   0.003096   0.075716  -0.102303  -0.000282   0.000030
    11  H    0.045731  -0.001589  -0.007451  -0.058050  -0.001316  -0.000014
    12  C    0.115814  -0.419689  -0.132203   0.306126   0.030668   0.005104
    13  H    0.005646  -0.007620   0.011882  -0.005780  -0.001267   0.000001
    14  H    0.030482  -0.011489   0.017912   0.014542   0.000049  -0.000011
    15  C   -0.229389   0.193366  -0.356954   0.009854   0.016393  -0.000803
    16  H    0.007863  -0.000895   0.002324   0.001783   0.000056   0.000000
    17  H   -0.002724  -0.001585   0.001735  -0.001826  -0.000020   0.000000
    18  C   -0.155132   0.001168  -0.176778  -0.122513   0.003830   0.000072
    19  H    0.001380   0.000088   0.000299   0.000717   0.000002   0.000000
    20  H   -0.000484  -0.000312   0.000705   0.000299  -0.000008   0.000000
    21  C   -0.007931   0.001037  -0.006530  -0.004222   0.000306   0.000000
    22  H    0.000012   0.000012  -0.000103  -0.000012   0.000000   0.000000
    23  H   -0.000016   0.000001   0.000095   0.000002   0.000000   0.000000
    24  C   -0.002452   0.000273  -0.002458  -0.001949   0.000029   0.000000
    25  H    0.000004   0.000000   0.000003   0.000003   0.000000   0.000000
    26  H   -0.000015   0.000000  -0.000015  -0.000010   0.000000   0.000000
    27  H    0.000007   0.000002   0.000002  -0.000004   0.000000   0.000000
    28  C   -0.621161   0.203807  -0.857979  -0.143891   0.002249  -0.004036
    29  H    0.086222   0.099584   0.054088  -0.018599  -0.000263  -0.002501
    30  H    0.016776   0.021484   0.007402  -0.002467   0.000010   0.000528
    31  H    0.010796  -0.011501   0.084371   0.010560   0.000003  -0.000293
    32  N    0.026838  -0.064274   0.100106   0.066052   0.000432   0.002269
    33  S   -0.493656   0.156779  -0.486589   0.224046   0.016835   0.022808
    34  S   -0.004158   0.017648  -0.022759  -0.014346   0.000138   0.000056
    35  O   -0.051400   0.125843   0.039304  -0.135630  -0.001716  -0.002465
    36  O    0.353511  -0.113052  -0.141337  -0.171210  -0.007836  -0.003660
    37  O    0.001846   0.003251   0.002480  -0.003108  -0.000001  -0.000006
    38  O    0.002550  -0.011400   0.006166   0.008491   0.000013   0.000029
    39  C    0.383411  -0.525490   0.107446   0.091376  -0.003886   0.023765
    40  C   -0.006872   0.001198  -0.006051  -0.002609   0.000007  -0.000015
    41  F   -0.136259   0.035003   0.004672  -0.014989   0.000161  -0.040795
    42  F   -0.025049  -0.019019   0.056053   0.024444   0.000335  -0.000148
    43  F    0.007360   0.047059   0.004618  -0.009710  -0.000078  -0.002880
    44  F    0.000287  -0.000278   0.000278  -0.000015   0.000000   0.000000
    45  F    0.000583  -0.000573   0.001494   0.000139   0.000000   0.000000
    46  F   -0.000014  -0.000039   0.000019  -0.000014   0.000000   0.000000
              7          8          9         10         11         12
     1  C   -0.018914   0.180962  -0.348503  -0.023630   0.045731   0.115814
     2  C    0.021930  -0.158091   0.311569   0.003096  -0.001589  -0.419689
     3  C    0.396482   0.070726  -0.497437   0.075716  -0.007451  -0.132203
     4  N   -0.045970  -0.828030  -0.203036  -0.102303  -0.058050   0.306126
     5  H   -0.000064   0.028978  -0.049114  -0.000282  -0.001316   0.030668
     6  H    0.000030  -0.109931  -0.006296   0.000030  -0.000014   0.005104
     7  H    0.361845  -0.011713  -0.011492   0.002651   0.000030   0.007660
     8  N   -0.011713   8.452360  -0.317082   0.013985  -0.011653   0.126920
     9  C   -0.011492  -0.317082  11.310279   0.361451   0.434107  -2.732710
    10  H    0.002651   0.013985   0.361451   0.409729  -0.022253  -0.005342
    11  H    0.000030  -0.011653   0.434107  -0.022253   0.392865   0.027388
    12  C    0.007660   0.126920  -2.732710  -0.005342   0.027388  10.773857
    13  H    0.000089   0.003554  -0.024079   0.003289  -0.006468   0.393604
    14  H   -0.000498   0.001710  -0.101058  -0.004802   0.003260   0.500958
    15  C    0.003260   0.103110   0.068599  -0.004671  -0.090155  -1.342888
    16  H   -0.000017   0.000196  -0.007509   0.000186   0.001542  -0.014086
    17  H    0.000053   0.000059   0.021953   0.000500  -0.000111  -0.065514
    18  C    0.000335   0.019480  -1.038344  -0.001839  -0.012008  -0.434703
    19  H    0.000000   0.000084   0.008410   0.000133  -0.000065   0.008819
    20  H    0.000000  -0.000061   0.017199  -0.000071   0.000127   0.032297
    21  C    0.000041   0.002263  -0.343815   0.000869  -0.001838  -0.276536
    22  H    0.000000   0.000001   0.000551   0.000013  -0.000032  -0.001848
    23  H    0.000000  -0.000002   0.002372  -0.000028   0.000013   0.012327
    24  C    0.000001   0.000236  -0.053872  -0.000073  -0.000369  -0.266029
    25  H    0.000000   0.000000   0.000710   0.000000   0.000000   0.006641
    26  H    0.000000   0.000000  -0.000622   0.000000   0.000000  -0.003553
    27  H    0.000000   0.000000  -0.000514   0.000000   0.000000  -0.000589
    28  C   -0.000235   0.019190  -0.161564   0.006164   0.000722   0.024838
    29  H   -0.004988  -0.055254   0.021056  -0.000082  -0.000041  -0.008210
    30  H   -0.000246  -0.089960   0.003825  -0.000006  -0.000005  -0.000304
    31  H   -0.000759  -0.064812   0.009159  -0.000071  -0.000008  -0.000872
    32  N   -0.011241  -0.204831   0.051052  -0.000730  -0.000751   0.003766
    33  S    0.029630   0.183988  -0.137524   0.001016   0.000530   0.001154
    34  S   -0.001034   0.037719   0.020184  -0.000030  -0.000331  -0.003354
    35  O    0.001225   0.039168  -0.041656   0.000568   0.001298  -0.026018
    36  O   -0.022302  -0.488544   0.227061   0.003303   0.005003  -0.181028
    37  O   -0.000070   0.001657  -0.000343   0.000003   0.000002  -0.001085
    38  O   -0.000167  -0.003731  -0.001780  -0.000040  -0.000037   0.004341
    39  C   -0.002931  -0.283310  -0.078534   0.000571   0.000853   0.048681
    40  C    0.000026  -0.000412  -0.004717   0.000025   0.000028  -0.000798
    41  F    0.000045  -0.007965  -0.011951   0.000020   0.000080   0.000557
    42  F    0.001945   0.104115  -0.005663   0.000010   0.000001   0.007405
    43  F   -0.000024   0.009646   0.000265   0.000000   0.000002  -0.001171
    44  F    0.000000   0.000036   0.000036   0.000000   0.000000  -0.000003
    45  F   -0.000001  -0.000281  -0.000108   0.000000   0.000000   0.000033
    46  F    0.000000   0.000038  -0.000015   0.000000   0.000000  -0.000001
             13         14         15         16         17         18
     1  C    0.005646   0.030482  -0.229389   0.007863  -0.002724  -0.155132
     2  C   -0.007620  -0.011489   0.193366  -0.000895  -0.001585   0.001168
     3  C    0.011882   0.017912  -0.356954   0.002324   0.001735  -0.176778
     4  N   -0.005780   0.014542   0.009854   0.001783  -0.001826  -0.122513
     5  H   -0.001267   0.000049   0.016393   0.000056  -0.000020   0.003830
     6  H    0.000001  -0.000011  -0.000803   0.000000   0.000000   0.000072
     7  H    0.000089  -0.000498   0.003260  -0.000017   0.000053   0.000335
     8  N    0.003554   0.001710   0.103110   0.000196   0.000059   0.019480
     9  C   -0.024079  -0.101058   0.068599  -0.007509   0.021953  -1.038344
    10  H    0.003289  -0.004802  -0.004671   0.000186   0.000500  -0.001839
    11  H   -0.006468   0.003260  -0.090155   0.001542  -0.000111  -0.012008
    12  C    0.393604   0.500958  -1.342888  -0.014086  -0.065514  -0.434703
    13  H    0.430596  -0.033170  -0.038822  -0.005293   0.005042   0.001812
    14  H   -0.033170   0.415983  -0.077948   0.005006  -0.005050  -0.032730
    15  C   -0.038822  -0.077948   8.084462   0.420801   0.411590  -0.599418
    16  H   -0.005293   0.005006   0.420801   0.449077  -0.037844  -0.094663
    17  H    0.005042  -0.005050   0.411590  -0.037844   0.447903  -0.036121
    18  C    0.001812  -0.032730  -0.599418  -0.094663  -0.036121   8.727222
    19  H    0.000699   0.001375  -0.024900   0.006006  -0.006468   0.394761
    20  H    0.000709   0.000531  -0.058376  -0.006152   0.005831   0.417593
    21  C    0.002313   0.001999   0.220962  -0.001106  -0.013473  -0.419468
    22  H    0.000161  -0.000075  -0.003164   0.001166   0.000301  -0.037841
    23  H   -0.000092   0.000121   0.004282   0.000268   0.001546  -0.053266
    24  C    0.001069   0.000177  -0.326442   0.001794   0.004055   0.401029
    25  H    0.000000   0.000000   0.018665  -0.000022  -0.000020   0.081722
    26  H    0.000011  -0.000025  -0.005367  -0.000045   0.000077  -0.037521
    27  H   -0.000027   0.000008   0.000247   0.000092  -0.000042  -0.044977
    28  C   -0.000139   0.001386   0.021262   0.000053  -0.000041   0.000720
    29  H    0.000001   0.000000   0.000434   0.000000   0.000000  -0.000031
[...]
    30  H    2.856881   3.635988   2.075776   5.553179   5.729750
    31  H    3.878428   2.469651   2.082765   5.036019   4.891931
    32  N    4.336753   3.824391   3.521009   5.240246   5.259238
    33  S    4.154342   4.410791   3.911268   4.907564   5.173659
    34  S    4.541724   2.567940   2.975946   4.591465   4.352009
    35  O    5.497527   5.604223   5.332385   5.861794   6.076130
    36  O    3.682530   3.744072   3.367474   3.569651   3.987306
    37  O    4.940340   3.069645   3.301303   5.606755   5.303652
    38  O    4.012054   1.302624   2.178759   3.178540   2.961484
    39  C    3.382825   5.355849   4.068583   5.862944   6.350092
    40  C    6.284056   3.531138   4.651895   5.227477   4.704586
    41  F    3.020712   5.639850   4.210019   5.552206   6.238960
    42  F    2.771815   5.042177   3.463478   6.025021   6.461609
    43  F    4.555218   6.569798   5.331522   7.124759   7.584584
    44  F    7.065507   4.693937   5.576061   6.517186   6.022364
    45  F    6.483724   3.965597   5.068725   4.897165   4.446477
    46  F    6.891458   3.380136   4.981829   5.243449   4.491799
                   11         12         13         14         15
    11  H    0.000000
    12  C    2.183812   0.000000
    13  H    2.506601   1.094774   0.000000
    14  H    3.081637   1.094134   1.756263   0.000000
    15  C    2.807877   1.525635   2.149880   2.162146   0.000000
    16  H    2.556045   2.150566   2.504890   3.060811   1.095779
    17  H    3.166727   2.161578   3.060073   2.510828   1.095236
    18  C    4.209051   2.532926   2.737864   2.788003   1.527070
    19  H    4.754338   2.762240   3.052154   2.567254   2.160415
    20  H    4.355241   2.748140   2.496985   3.108127   2.148522
    21  C    5.236176   3.904164   4.166820   4.212410   2.549912
    22  H    5.094241   4.180492   4.359433   4.729808   2.762600
    23  H    5.462323   4.208194   4.713854   4.409843   2.791478
    24  C    6.597644   5.066046   5.145753   5.216735   3.904899
    25  H    7.378777   6.001222   6.129973   6.197063   4.719209
    26  H    6.998267   5.228014   5.361661   5.147582   4.232424
    27  H    6.705275   5.199813   5.046101   5.421677   4.205630
    28  C    5.299438   5.943005   6.100839   5.841983   7.315006
    29  H    5.615986   6.568905   6.663074   6.610227   7.900783
    30  H    6.040491   6.399902   6.463920   6.172626   7.846251
    31  H    5.515814   6.132837   6.472289   5.957902   7.410164
    32  N    4.965091   6.689818   6.873310   7.107882   7.674967
    33  S    4.357366   6.268192   6.275582   6.885582   7.163385
    34  S    4.583884   6.056065   6.452495   6.310770   7.031186
    35  O    5.129715   7.208720   7.219579   7.941292   7.895696
    36  O    2.959771   4.867707   4.850321   5.554362   5.752875
    37  O    5.791775   6.974357   7.392858   7.034788   8.044645
    38  O    3.339266   4.613917   5.064111   4.843183   5.633121
    39  C    5.429322   7.017947   6.778685   7.546170   8.116630
    40  C    5.084097   6.725802   7.298994   7.068025   7.366091
    41  F    5.071755   6.494765   6.071619   7.081069   7.585270
    42  F    5.824619   7.149760   6.947643   7.496339   8.401521
    43  F    6.614802   8.290453   8.028022   8.855002   9.330835
    44  F    6.329182   8.024185   8.559186   8.362871   8.673458
    45  F    4.509128   6.385144   6.922099   6.911702   6.840424
    46  F    5.304246   6.641929   7.374957   6.843239   7.186426
                   16         17         18         19         20
    16  H    0.000000
    17  H    1.753218   0.000000
    18  C    2.153619   2.159132   0.000000
    19  H    3.062013   2.522507   1.096367   0.000000
    20  H    2.492472   3.057194   1.096005   1.753298   0.000000
    21  C    2.778370   2.782389   1.526485   2.155113   2.150502
    22  H    2.539631   3.081009   2.150414   3.056148   2.502204
    23  H    3.119926   2.576131   2.156384   2.505777   3.056579
    24  C    4.187321   4.208449   2.533573   2.763287   2.745385
    25  H    4.874022   4.893906   3.487344   3.767704   3.750304
    26  H    4.753097   4.443397   2.799407   2.580436   3.102354
    27  H    4.382608   4.747815   2.788568   3.117650   2.549499
    28  C    7.603254   7.445560   8.454272   8.407819   8.540780
    29  H    8.058623   8.066067   9.101064   9.155605   9.140452
    30  H    8.218747   8.034736   8.853671   8.711626   8.877963
    31  H    7.751926   7.379522   8.600511   8.505391   8.821744
    32  N    7.494141   7.768629   9.083345   9.424122   9.183424
    33  S    6.804902   7.425110   8.519721   9.006972   8.487172
    34  S    7.022878   6.954013   8.460503   8.677038   8.716507
    35  O    7.370616   8.132686   9.265844   9.870217   9.234209
    36  O    5.399517   6.090172   7.080573   7.589263   7.032004
    37  O    8.175103   7.912698   9.415681   9.494256   9.700055
    38  O    5.718744   5.582968   7.033727   7.216535   7.307512
    39  C    7.830464   8.550992   9.311927   9.733738   9.096251
    40  C    7.246875   7.079184   8.874723   9.173880   9.283844
    41  F    7.266945   8.169335   8.644709   9.104579   8.295970
    42  F    8.283180   8.796178   9.567031   9.847216   9.382928
    43  F    8.969860   9.765092  10.528650  10.996466  10.285063
    44  F    8.518123   8.386041  10.185376  10.492373  10.577758
    45  F    6.544099   6.597086   8.366397   8.809948   8.748431
    46  F    7.205060   6.724475   8.663421   8.858507   9.208641
                   21         22         23         24         25
    21  C    0.000000
    22  H    1.095221   0.000000
    23  H    1.094202   1.752001   0.000000
    24  C    1.525619   2.157682   2.155956   0.000000
    25  H    2.177367   2.502847   2.501194   1.090547   0.000000
    26  H    2.175473   3.074704   2.523383   1.093155   1.764336
    27  H    2.167116   2.512147   3.067081   1.092759   1.763469
    28  C    9.815912  10.023519   9.932880  10.976248  11.926241
    29  H   10.431318  10.542407  10.578581  11.632745  12.563556
    30  H   10.278278  10.558194  10.439553  11.339648  12.331407
    31  H    9.899944  10.146804   9.896432  11.104925  12.019799
    32  N   10.170698  10.022992  10.269250  11.540243  12.330317
    33  S    9.556491   9.281164   9.782671  10.893130  11.659796
    34  S    9.546999   9.526588   9.516496  10.933718  11.723888
    35  O   10.148168   9.734985  10.364191  11.512729  12.192147
    36  O    8.135786   7.880928   8.405056   9.451823  10.234265
    37  O   10.562688  10.648099  10.486710  11.907259  12.731258
    38  O    8.164000   8.209496   8.153995   9.522706  10.339807
    39  C   10.487683  10.262317  10.853194  11.693288  12.540993
    40  C    9.730074   9.622047   9.543396  11.204882  11.866565
    41  F    9.831318   9.585361  10.312840  10.941560  11.803119
    42  F   10.846668  10.749666  11.179055  12.021318  12.926873
    43  F   11.655984  11.363857  12.033373  12.863840  13.683158
    44  F   11.024622  10.884699  10.829276  12.506534  13.152879
    45  F    9.103883   8.865161   8.953112  10.603985  11.204376
    46  F    9.460230   9.454311   9.141186  10.926671  11.559552
                   26         27         28         29         30
    26  H    0.000000
    27  H    1.764432   0.000000
    28  C   10.986627  11.064371   0.000000
    29  H   11.721176  11.683088   1.073492   0.000000
    30  H   11.275389  11.382195   1.090349   1.759007   0.000000
    31  H   11.077461  11.297967   1.092202   1.773364   1.796336
    32  N   11.853125  11.631731   3.433752   2.742399   4.412574
    33  S   11.319085  10.878284   4.298779   3.686408   5.194417
    34  S   11.145702  11.147138   2.863370   2.612301   3.945025
    35  O   12.042784  11.494020   5.688188   5.015559   6.596242
    36  O    9.879186   9.427015   4.225311   3.948009   5.094658
    37  O   12.014221  12.149630   2.541669   2.318839   3.468457
    38  O    9.702411   9.742454   2.725402   2.936447   3.757916
    39  C   12.073436  11.535537   4.269314   3.491314   4.851709
    40  C   11.484142  11.541597   4.637953   4.432059   5.709725
    41  F   11.348580  10.681854   4.752059   4.193696   5.211833
    42  F   12.288926  11.891626   3.326200   2.471782   3.751924
    43  F   13.290135  12.676811   5.347785   4.441372   5.877801
    44  F   12.798520  12.837231   5.289741   4.891344   6.313043
    45  F   10.995983  10.914994   5.372909   5.148515   6.462977
    46  F   11.122358  11.374438   4.977658   5.026855   5.992323
                   31         32         33         34         35
    31  H    0.000000
    32  N    3.629389   0.000000
    33  S    4.737543   1.590793   0.000000
    34  S    2.633947   1.572319   2.810322   0.000000
    35  O    6.048279   2.559416   1.437637   3.826090   0.000000
    36  O    4.690561   2.531483   1.455595   3.079408   2.453999
    37  O    1.976480   2.490840   3.979406   1.447587   4.998283
    38  O    2.583388   2.576520   3.178157   1.469448   4.339955
    39  C    5.037952   2.647187   1.885669   3.959110   2.715448
    40  C    4.179861   2.696967   3.668359   1.851297   4.104739
    41  F    5.632804   3.690277   2.605514   4.788542   3.372692
    42  F    4.181026   2.715848   2.679875   3.752981   3.770208
    43  F    6.073479   3.368553   2.685966   4.864342   2.906445
    44  F    4.816708   3.027897   4.160692   2.607345   4.344487
    45  F    5.095118   2.986552   3.362421   2.599726   3.493867
    46  F    4.287794   3.852848   4.835013   2.615873   5.360467
                   36         37         38         39         40
    36  O    0.000000
    37  O    4.387450   0.000000
    38  O    2.726804   2.464238   0.000000
    39  C    2.632362   4.710313   4.304493   0.000000
    40  C    3.973863   2.634692   2.630164   5.255900   0.000000
    41  F    2.682034   5.648570   4.750581   1.334287   6.107121
    42  F    3.305427   4.130386   4.148707   1.324070   5.342053
    43  F    3.725056   5.504985   5.449663   1.327945   5.957257
    44  F    4.836662   2.943493   3.760735   5.603650   1.319075
    45  F    3.503366   3.755623   2.984682   5.184024   1.329317
    46  F    4.880299   3.033404   2.952320   6.384313   1.328887
                   41         42         43         44         45
    41  F    0.000000
    42  F    2.146579   0.000000
    43  F    2.184518   2.141925   0.000000
    44  F    6.643107   5.665429   6.048405   0.000000
    45  F    5.875749   5.580893   5.861176   2.172731   0.000000
    46  F    7.146572   6.348971   7.185908   2.158238   2.174363
                   46
    46  F    0.000000
 Stoichiometry    C12H19F6N3O4S2
 Framework group  C1[X(C12H19F6N3O4S2)]
 Deg. of freedom   132
 Full point group                 C1      NOp   1
 Largest Abelian subgroup         C1      NOp   1
 Largest concise Abelian subgroup C1      NOp   1
                         Standard orientation:                         
 ---------------------------------------------------------------------
 Center     Atomic      Atomic             Coordinates (Angstroms)
 Number     Number       Type             X           Y           Z
 ---------------------------------------------------------------------
      1          6           0        1.224879   -1.709684    1.108350
      2          6           0        0.078918   -1.852077    1.815054
      3          6           0        0.514448    0.317167    1.621007
      4          7           0        1.508077   -0.357623    1.047761
      5          1           0        1.845381   -2.448246    0.630499
      6          1           0       -0.512802   -2.742180    2.022308
      7          1           0        0.382640    1.387152    1.640469
      8          7           0       -0.308058   -0.566115    2.176322
      9          6           0        2.521643    0.228246    0.178236
     10          1           0        2.415030    1.311097    0.251100
     11          1           0        2.231280   -0.063265   -0.831496
     12          6           0        3.926130   -0.244415    0.533678
     13          1           0        3.958392   -1.336510    0.464259
     14          1           0        4.158996    0.011848    1.571576
     15          6           0        4.975509    0.347805   -0.402079
     16          1           0        4.708254    0.110501   -1.437933
     17          1           0        4.972079    1.440418   -0.326407
     18          6           0        6.375817   -0.185468   -0.107629
     19          1           0        6.645283    0.033603    0.932283
     20          1           0        6.365411   -1.277744   -0.197360
     21          6           0        7.444431    0.381302   -1.038752
     22          1           0        7.165690    0.168090   -2.076227
     23          1           0        7.472390    1.471210   -0.946040
     24          6           0        8.827096   -0.194239   -0.748055
     25          1           0        9.581166    0.213335   -1.422261
     26          1           0        9.140815    0.025252    0.275854
     27          1           0        8.825066   -1.280371   -0.868206
     28          6           0       -1.523627   -0.234502    2.904198
     29          1           0       -2.385374   -0.523479    2.332998
     30          1           0       -1.524217   -0.787532    3.843889
     31          1           0       -1.542569    0.841947    3.088054
     32          7           0       -2.697319    0.203162   -0.292918
     33         16           0       -2.033359   -0.808575   -1.325473
     34         16           0       -1.928412    1.304828    0.523967
     35          8           0       -2.511174   -0.707454   -2.677607
     36          8           0       -0.589494   -0.896039   -1.163113
     37          8           0       -2.671313    1.690330    1.705065
     38          8           0       -0.495465    1.058145    0.736304
     39          6           0       -2.649671   -2.427844   -0.581245
     40          6           0       -1.973443    2.784368   -0.587893
     41          9           0       -1.660376   -3.313442   -0.712914
     42          9           0       -2.916158   -2.311032    0.710459
     43          9           0       -3.747580   -2.871427   -1.182300
     44          9           0       -3.226154    3.141983   -0.794735
     45          9           0       -1.389914    2.465696   -1.738991
     46          9           0       -1.320561    3.791006   -0.016610
 ---------------------------------------------------------------------
 Rotational constants (GHZ):      0.2285637      0.0927415      0.0814030
 Standard basis: 6-311+G(d) (5D, 7F)
 There are   667 symmetry adapted basis functions of A   symmetry.
 Integral buffers will be    131072 words long.
 Raffenetti 2 integral format.
 Two-electron integral symmetry is turned on.
   667 basis functions,  1095 primitive gaussians,   694 cartesian basis functions
   115 alpha electrons      115 beta electrons
       nuclear repulsion energy      3520.9322178103 Hartrees.
 NAtoms=   46 NActive=   46 NUniq=   46 SFac= 7.50D-01 NAtFMM=   80 NAOKFM=F Big=F
 One-electron integrals computed using PRISM.
 PrsmSu:  requested number of processors reduced to:   8 ShMem   1 Linda.
 NBasis=   667 RedAO= T  NBF=   667
 NBsUse=   667 1.00D-06 NBFU=   667
 Initial guess read from the read-write file.
 B after Tr=     0.000000    0.000000    0.000000
         Rot=    1.000000    0.000000    0.000000    0.000000 Ang=   0.00 deg.
 Initial guess orbital symmetries:
       Occupied  (A) (A) (A) (A) (A) (A) (A) (A) (A) (A) (A) (A)
                 (A) (A) (A) (A) (A) (A) (A) (A) (A) (A) (A) (A)
                 (A) (A) (A) (A) (A) (A) (A) (A) (A) (A) (A) (A)
                 (A) (A) (A) (A) (A) (A) (A) (A) (A) (A) (A) (A)
                 (A) (A) (A) (A) (A) (A) (A) (A) (A) (A) (A) (A)
                 (A) (A) (A) (A) (A) (A) (A) (A) (A) (A) (A) (A)
                 (A) (A) (A) (A) (A) (A) (A) (A) (A) (A) (A) (A)
                 (A) (A) (A) (A) (A) (A) (A) (A) (A) (A) (A) (A)
                 (A) (A) (A) (A) (A) (A) (A) (A) (A) (A) (A) (A)
                 (A) (A) (A) (A) (A) (A) (A)
       Virtual   (A) (A) (A) (A) (A) (A) (A) (A) (A) (A) (A) (A)
                 (A) (A) (A) (A) (A) (A) (A) (A) (A) (A) (A) (A)
                 (A) (A) (A) (A) (A) (A) (A) (A) (A) (A) (A) (A)
                 (A) (A) (A) (A) (A) (A) (A) (A) (A) (A) (A) (A)
                 (A) (A) (A) (A) (A) (A) (A) (A) (A) (A) (A) (A)
                 (A) (A) (A) (A) (A) (A) (A) (A) (A) (A) (A) (A)
                 (A) (A) (A) (A) (A) (A) (A) (A) (A) (A) (A) (A)
                 (A) (A) (A) (A) (A) (A) (A) (A) (A) (A) (A) (A)
                 (A) (A) (A) (A) (A) (A) (A) (A) (A) (A) (A) (A)
                 (A) (A) (A) (A) (A) (A) (A) (A) (A) (A) (A) (A)
                 (A) (A) (A) (A) (A) (A) (A) (A) (A) (A) (A) (A)
                 (A) (A) (A) (A) (A) (A) (A) (A) (A) (A) (A) (A)
                 (A) (A) (A) (A) (A) (A) (A) (A) (A) (A) (A) (A)
                 (A) (A) (A) (A) (A) (A) (A) (A) (A) (A) (A) (A)
                 (A) (A) (A) (A) (A) (A) (A) (A) (A) (A) (A) (A)
                 (A) (A) (A) (A) (A) (A) (A) (A) (A) (A) (A) (A)
                 (A) (A) (A) (A) (A) (A) (A) (A) (A) (A) (A) (A)
                 (A) (A) (A) (A) (A) (A) (A) (A) (A) (A) (A) (A)
                 (A) (A) (A) (A) (A) (A) (A) (A) (A) (A) (A) (A)
                 (A) (A) (A) (A) (A) (A) (A) (A) (A) (A) (A) (A)
                 (A) (A) (A) (A) (A) (A) (A) (A) (A) (A) (A) (A)
                 (A) (A) (A) (A) (A) (A) (A) (A) (A) (A) (A) (A)
                 (A) (A) (A) (A) (A) (A) (A) (A) (A) (A) (A) (A)
                 (A) (A) (A) (A) (A) (A) (A) (A) (A) (A) (A) (A)
                 (A) (A) (A) (A) (A) (A) (A) (A) (A) (A) (A) (A)
                 (A) (A) (A) (A) (A) (A) (A) (A) (A) (A) (A) (A)
                 (A) (A) (A) (A) (A) (A) (A) (A) (A) (A) (A) (A)
                 (A) (A) (A) (A) (A) (A) (A) (A) (A) (A) (A) (A)
                 (A) (A) (A) (A) (A) (A) (A) (A) (A) (A) (A) (A)
                 (A) (A) (A) (A) (A) (A) (A) (A) (A) (A) (A) (A)
                 (A) (A) (A) (A) (A) (A) (A) (A) (A) (A) (A) (A)
                 (A) (A) (A) (A) (A) (A) (A) (A) (A) (A) (A) (A)
                 (A) (A) (A) (A) (A) (A) (A) (A) (A) (A) (A) (A)
                 (A) (A) (A) (A) (A) (A) (A) (A) (A) (A) (A) (A)
                 (A) (A) (A) (A) (A) (A) (A) (A) (A) (A) (A) (A)
                 (A) (A) (A) (A) (A) (A) (A) (A) (A) (A) (A) (A)
                 (A) (A) (A) (A) (A) (A) (A) (A) (A) (A) (A) (A)
                 (A) (A) (A) (A) (A) (A) (A) (A) (A) (A) (A) (A)
                 (A) (A) (A) (A) (A) (A) (A) (A) (A) (A) (A) (A)
                 (A) (A) (A) (A) (A) (A) (A) (A) (A) (A) (A) (A)
                 (A) (A) (A) (A) (A) (A) (A) (A) (A) (A) (A) (A)
                 (A) (A) (A) (A) (A) (A) (A) (A) (A) (A) (A) (A)
                 (A) (A) (A) (A) (A) (A) (A) (A) (A) (A) (A) (A)
                 (A) (A) (A) (A) (A) (A) (A) (A) (A) (A) (A) (A)
                 (A) (A) (A) (A) (A) (A) (A) (A) (A) (A) (A) (A)
                 (A) (A) (A) (A) (A) (A) (A) (A) (A) (A) (A) (A)
 Harris functional with IExCor= 1009 diagonalized for initial guess.
 ExpMin= 4.05D-02 ExpMax= 9.34D+04 ExpMxC= 3.17D+03 IAcc=2 IRadAn=         0 AccDes= 0.00D+00
 HarFok:  IExCor= 1009 AccDes= 0.00D+00 IRadAn=         0 IDoV= 1
 ScaDFX=  1.000000  1.000000  1.000000  1.000000
 FoFCou: FMM=F IPFlag=           0 FMFlag=      100000 FMFlg1=           0
         NFxFlg=           0 DoJE=T BraDBF=F KetDBF=T FulRan=T
         Omega=  0.000000  0.000000  1.000000  0.000000  0.000000 ICntrl=     500 IOpCl=  0
         NMat0=    1 NMatS0=    1 NMatT0=    0 NMatD0=    1 NMtDS0=    0 NMtDT0=    0
         I1Cent=           4 NGrid=           0.
 Petite list used in FoFCou.
 Requested convergence on RMS density matrix=1.00D-08 within 128 cycles.
 Requested convergence on MAX density matrix=1.00D-06.
 Requested convergence on             energy=1.00D-06.
 No special actions if energy rises.
