 Entering Gaussian System, Link 0=g09
 Input=PAM_FOR_2.com
 Output=PAM_FOR_2.log
 Initial command:
 /gscratch/pfaendtner/codes/G09/g09/l1.exe /gscratch/pfaendtner/wesley/gaussian/Gau-25277.inp -scrdir=/gscratch/pfaendtner/wesley/gaussian/
 Entering Link 1 = /gscratch/pfaendtner/codes/G09/g09/l1.exe PID=     25292.
  
 Copyright (c) 1988,1990,1992,1993,1995,1998,2003,2009, Gaussian, Inc.
                  All Rights Reserved.
  
 This is part of the Gaussian(R) 09 program.  It is based on
 the Gaussian(R) 03 system (copyright 2003, Gaussian, Inc.),
 the Gaussian(R) 98 system (copyright 1998, Gaussian, Inc.),
 the Gaussian(R) 94 system (copyright 1995, Gaussian, Inc.),
 the Gaussian 92(TM) system (copyright 1992, Gaussian, Inc.),
 the Gaussian 90(TM) system (copyright 1990, Gaussian, Inc.),
 the Gaussian 88(TM) system (copyright 1988, Gaussian, Inc.),
 the Gaussian 86(TM) system (copyright 1986, Carnegie Mellon
 University), and the Gaussian 82(TM) system (copyright 1983,
 Carnegie Mellon University). Gaussian is a federally registered
 trademark of Gaussian, Inc.
  
 This software contains proprietary and confidential information,
 including trade secrets, belonging to Gaussian, Inc.
  
 This software is provided under written license and may be
 used, copied, transmitted, or stored only in accord with that
 written license.
  
 The following legend is applicable only to US Government
 contracts under FAR:
  
                    RESTRICTED RIGHTS LEGEND
  
 Use, reproduction and disclosure by the US Government is
 subject to restrictions as set forth in subparagraphs (a)
 and (c) of the Commercial Computer Software - Restricted
 Rights clause in FAR 52.227-19.
  
 Gaussian, Inc.
 340 Quinnipiac St., Bldg. 40, Wallingford CT 06492
  
  
 ---------------------------------------------------------------
 Warning -- This program may not be used in any manner that
 competes with the business of Gaussian, Inc. or will provide
 assistance to any competitor of Gaussian, Inc.  The licensee
 of this program is prohibited from giving any competitor of
 Gaussian, Inc. access to this program.  By using this program,
 the user acknowledges that Gaussian, Inc. is engaged in the
 business of creating and licensing software in the field of
 computational chemistry and represents and warrants to the
 licensee that it is not a competitor of Gaussian, Inc. and that
 it will not use this program in any manner prohibited above.
 ---------------------------------------------------------------
  

 Cite this work as:
 Gaussian 09, Revision A.02,
 M. J. Frisch, G. W. Trucks, H. B. Schlegel, G. E. Scuseria, 
 M. A. Robb, J. R. Cheeseman, G. Scalmani, V. Barone, B. Mennucci, 
 G. A. Petersson, H. Nakatsuji, M. Caricato, X. Li, H. P. Hratchian, 
 A. F. Izmaylov, J. Bloino, G. Zheng, J. L. Sonnenberg, M. Hada, 
 M. Ehara, K. Toyota, R. Fukuda, J. Hasegawa, M. Ishida, T. Nakajima, 
 Y. Honda, O. Kitao, H. Nakai, T. Vreven, J. A. Montgomery, Jr., 
 J. E. Peralta, F. Ogliaro, M. Bearpark, J. J. Heyd, E. Brothers, 
 K. N. Kudin, V. N. Staroverov, R. Kobayashi, J. Normand, 
 K. Raghavachari, A. Rendell, J. C. Burant, S. S. Iyengar, J. Tomasi, 
 M. Cossi, N. Rega, J. M. Millam, M. Klene, J. E. Knox, J. B. Cross, 
 V. Bakken, C. Adamo, J. Jaramillo, R. Gomperts, R. E. Stratmann, 
 O. Yazyev, A. J. Austin, R. Cammi, C. Pomelli, J. W. Ochterski, 
 R. L. Martin, K. Morokuma, V. G. Zakrzewski, G. A. Voth, 
 P. Salvador, J. J. Dannenberg, S. Dapprich, A. D. Daniels, 
 O. Farkas, J. B. Foresman, J. V. Ortiz, J. Cioslowski, 
 and D. J. Fox, Gaussian, Inc., Wallingford CT, 2009.
 
 ******************************************
 Gaussian 09:  EM64L-G09RevA.02 11-Jun-2009
                 9-Mar-2017 
 ******************************************
 %chk=PAM_FOR_2.chk
 %nprocshared=2
 Will use up to    2 processors via shared memory.
 --------------------------------------
 # opt M062X/6-311+G* geom=connectivity
 --------------------------------------
 1/14=-1,18=20,19=15,26=3,38=1,57=2/1,3;
 2/9=110,12=2,17=6,18=5,40=1/2;
 3/5=4,6=6,7=11,11=2,16=1,25=1,30=1,71=1,74=-55/1,2,3;
 4//1;
 5/5=2,38=5/2;
 6/7=2,8=2,9=2,10=2,28=1/1;
 7//1,2,3,16;
 1/14=-1,18=20,19=15/3(2);
 2/9=110/2;
 99//99;
 2/9=110/2;
 3/5=4,6=6,7=11,11=2,16=1,25=1,30=1,71=1,74=-55/1,2,3;
 4/5=5,16=3/1;
 5/5=2,38=5/2;
 7//1,2,3,16;
 1/14=-1,18=20,19=15/3(-5);
 2/9=110/2;
 6/7=2,8=2,9=2,10=2,19=2,28=1/1;
 99/9=1/99;
 -------------------
 Title Card Required
 -------------------
 Symbolic Z-matrix:
 Charge =  0 Multiplicity = 1
 C(PDBName=C1,ResName=PAM,ResNum=1) -2.13114  -0.80019   0.11587 
 H(PDBName=H1,ResName=PAM,ResNum=1) -1.89144  -1.8138    0.3609 
 H(PDBName=H2,ResName=PAM,ResNum=1) -3.19353  -0.69064   0.05081 
 C(PDBName=C2,ResName=PAM,ResNum=1) -1.58467   0.13547   1.21018 
 H(PDBName=H3,ResName=PAM,ResNum=1) -1.82437   1.14908   0.96516 
 H(PDBName=H4,ResName=PAM,ResNum=1) -2.02766  -0.1185    2.15048 
 C(PDBName=C3,ResName=PAM,ResNum=1) -0.05563  -0.02219   1.30382 
 H(PDBName=H5,ResName=PAM,ResNum=1)  0.38737   0.23177   0.36352 
 H(PDBName=H6,ResName=PAM,ResNum=1)  0.18407  -1.0358    1.54885 
 C(PDBName=C4,ResName=PAM,ResNum=1)  0.49085   0.91346   2.39813 
 H(PDBName=H7,ResName=PAM,ResNum=1)  0.04785   0.6595    3.33843 
 H(PDBName=H8,ResName=PAM,ResNum=1)  0.25115   1.92707   2.1531 
 N(PDBName=N1,ResName=PAM,ResNum=1)  1.95039   0.76297   2.48751 
 H(PDBName=H9,ResName=PAM,ResNum=1)  2.30524   1.37054   3.1981 
 H(PDBName=H10,ResName=PAM,ResNum=1)  2.17441  -0.18433   2.71651 
 H(PDBName=H11,ResName=PAM,ResNum=1)  2.3644    1.00032   1.60873 
 C(PDBName=C5,ResName=PAM,ResNum=1) -1.49356  -0.43467  -1.23745 
 H(PDBName=H12,ResName=PAM,ResNum=1) -0.43118  -0.54421  -1.17239 
 H(PDBName=H13,ResName=PAM,ResNum=1) -1.87326  -1.08477  -1.99778 
 H(PDBName=H14,ResName=PAM,ResNum=1) -1.73327   0.57894  -1.48248 
 O                     2.5624    2.85644   2.5192 
 C                     1.304     2.85386   2.51892 
 H                     0.7671    3.77886   2.55067 
 O                     0.67705   1.76341   2.48129 
 

 GradGradGradGradGradGradGradGradGradGradGradGradGradGradGradGradGradGrad
 Berny optimization.
 Initialization pass.
                           ----------------------------
                           !    Initial Parameters    !
                           ! (Angstroms and Degrees)  !
 --------------------------                            --------------------------
 ! Name  Definition              Value          Derivative Info.                !
 --------------------------------------------------------------------------------
 ! R1    R(1,2)                  1.07           estimate D2E/DX2                !
 ! R2    R(1,3)                  1.07           estimate D2E/DX2                !
 ! R3    R(1,4)                  1.54           estimate D2E/DX2                !
 ! R4    R(1,17)                 1.54           estimate D2E/DX2                !
 ! R5    R(4,5)                  1.07           estimate D2E/DX2                !
 ! R6    R(4,6)                  1.07           estimate D2E/DX2                !
 ! R7    R(4,7)                  1.54           estimate D2E/DX2                !
 ! R8    R(7,8)                  1.07           estimate D2E/DX2                !
 ! R9    R(7,9)                  1.07           estimate D2E/DX2                !
 ! R10   R(7,10)                 1.54           estimate D2E/DX2                !
 ! R11   R(10,11)                1.07           estimate D2E/DX2                !
 ! R12   R(10,12)                1.07           estimate D2E/DX2                !
 ! R13   R(10,13)                1.47           estimate D2E/DX2                !
 ! R14   R(10,24)                0.8741         estimate D2E/DX2                !
 ! R15   R(12,24)                0.562          estimate D2E/DX2                !
 ! R16   R(13,14)                1.0            estimate D2E/DX2                !
 ! R17   R(13,15)                1.0            estimate D2E/DX2                !
 ! R18   R(13,16)                1.0            estimate D2E/DX2                !
 ! R19   R(17,18)                1.07           estimate D2E/DX2                !
 ! R20   R(17,19)                1.07           estimate D2E/DX2                !
 ! R21   R(17,20)                1.07           estimate D2E/DX2                !
 ! R22   R(21,22)                1.2584         estimate D2E/DX2                !
 ! R23   R(22,23)                1.07           estimate D2E/DX2                !
 ! R24   R(22,24)                1.2584         estimate D2E/DX2                !
 ! A1    A(2,1,3)              109.4712         estimate D2E/DX2                !
 ! A2    A(2,1,4)              109.4712         estimate D2E/DX2                !
 ! A3    A(2,1,17)             109.4712         estimate D2E/DX2                !
 ! A4    A(3,1,4)              109.4712         estimate D2E/DX2                !
 ! A5    A(3,1,17)             109.4712         estimate D2E/DX2                !
 ! A6    A(4,1,17)             109.4712         estimate D2E/DX2                !
 ! A7    A(1,4,5)              109.4712         estimate D2E/DX2                !
 ! A8    A(1,4,6)              109.4712         estimate D2E/DX2                !
 ! A9    A(1,4,7)              109.4712         estimate D2E/DX2                !
 ! A10   A(5,4,6)              109.4712         estimate D2E/DX2                !
 ! A11   A(5,4,7)              109.4712         estimate D2E/DX2                !
 ! A12   A(6,4,7)              109.4712         estimate D2E/DX2                !
 ! A13   A(4,7,8)              109.4712         estimate D2E/DX2                !
 ! A14   A(4,7,9)              109.4712         estimate D2E/DX2                !
 ! A15   A(4,7,10)             109.4712         estimate D2E/DX2                !
 ! A16   A(8,7,9)              109.4712         estimate D2E/DX2                !
 ! A17   A(8,7,10)             109.4712         estimate D2E/DX2                !
 ! A18   A(9,7,10)             109.4712         estimate D2E/DX2                !
 ! A19   A(7,10,11)            109.4712         estimate D2E/DX2                !
 ! A20   A(7,10,12)            109.4712         estimate D2E/DX2                !
 ! A21   A(7,10,13)            109.4712         estimate D2E/DX2                !
 ! A22   A(7,10,24)            137.2229         estimate D2E/DX2                !
 ! A23   A(11,10,12)           109.4712         estimate D2E/DX2                !
 ! A24   A(11,10,13)           109.4712         estimate D2E/DX2                !
 ! A25   A(11,10,24)           103.6146         estimate D2E/DX2                !
 ! A26   A(12,10,13)           109.4712         estimate D2E/DX2                !
 ! A27   A(13,10,24)            83.2382         estimate D2E/DX2                !
 ! A28   A(10,13,14)           109.4712         estimate D2E/DX2                !
 ! A29   A(10,13,15)           109.4712         estimate D2E/DX2                !
 ! A30   A(10,13,16)           109.4712         estimate D2E/DX2                !
 ! A31   A(14,13,15)           109.4712         estimate D2E/DX2                !
 ! A32   A(14,13,16)           109.4712         estimate D2E/DX2                !
 ! A33   A(15,13,16)           109.4712         estimate D2E/DX2                !
 ! A34   A(1,17,18)            109.4712         estimate D2E/DX2                !
 ! A35   A(1,17,19)            109.4712         estimate D2E/DX2                !
 ! A36   A(1,17,20)            109.4712         estimate D2E/DX2                !
 ! A37   A(18,17,19)           109.4712         estimate D2E/DX2                !
 ! A38   A(18,17,20)           109.4712         estimate D2E/DX2                !
 ! A39   A(19,17,20)           109.4712         estimate D2E/DX2                !
 ! A40   A(21,22,23)           120.0            estimate D2E/DX2                !
 ! A41   A(21,22,24)           120.0            estimate D2E/DX2                !
 ! A42   A(23,22,24)           120.0            estimate D2E/DX2                !
 ! A43   A(10,24,22)           162.1011         estimate D2E/DX2                !
 ! A44   A(12,24,22)            98.2026         estimate D2E/DX2                !
 ! D1    D(2,1,4,5)            180.0            estimate D2E/DX2                !
 ! D2    D(2,1,4,6)            -60.0            estimate D2E/DX2                !
 ! D3    D(2,1,4,7)             60.0            estimate D2E/DX2                !
 ! D4    D(3,1,4,5)            -60.0            estimate D2E/DX2                !
 ! D5    D(3,1,4,6)             60.0            estimate D2E/DX2                !
 ! D6    D(3,1,4,7)            180.0            estimate D2E/DX2                !
 ! D7    D(17,1,4,5)            60.0            estimate D2E/DX2                !
 ! D8    D(17,1,4,6)           180.0            estimate D2E/DX2                !
 ! D9    D(17,1,4,7)           -60.0            estimate D2E/DX2                !
 ! D10   D(2,1,17,18)          -60.0            estimate D2E/DX2                !
 ! D11   D(2,1,17,19)           60.0            estimate D2E/DX2                !
 ! D12   D(2,1,17,20)         -180.0            estimate D2E/DX2                !
 ! D13   D(3,1,17,18)          180.0            estimate D2E/DX2                !
 ! D14   D(3,1,17,19)          -60.0            estimate D2E/DX2                !
 ! D15   D(3,1,17,20)           60.0            estimate D2E/DX2                !
 ! D16   D(4,1,17,18)           60.0            estimate D2E/DX2                !
 ! D17   D(4,1,17,19)          180.0            estimate D2E/DX2                !
 ! D18   D(4,1,17,20)          -60.0            estimate D2E/DX2                !
 ! D19   D(1,4,7,8)             60.0            estimate D2E/DX2                !
 ! D20   D(1,4,7,9)            -60.0            estimate D2E/DX2                !
 ! D21   D(1,4,7,10)           180.0            estimate D2E/DX2                !
 ! D22   D(5,4,7,8)            -60.0            estimate D2E/DX2                !
 ! D23   D(5,4,7,9)            180.0            estimate D2E/DX2                !
 ! D24   D(5,4,7,10)            60.0            estimate D2E/DX2                !
 ! D25   D(6,4,7,8)            180.0            estimate D2E/DX2                !
 ! D26   D(6,4,7,9)             60.0            estimate D2E/DX2                !
 ! D27   D(6,4,7,10)           -60.0            estimate D2E/DX2                !
 ! D28   D(4,7,10,11)           60.0            estimate D2E/DX2                !
 ! D29   D(4,7,10,12)          -60.0            estimate D2E/DX2                !
 ! D30   D(4,7,10,13)          180.0            estimate D2E/DX2                !
 ! D31   D(4,7,10,24)          -78.5668         estimate D2E/DX2                !
 ! D32   D(8,7,10,11)          180.0            estimate D2E/DX2                !
 ! D33   D(8,7,10,12)           60.0            estimate D2E/DX2                !
 ! D34   D(8,7,10,13)          -60.0            estimate D2E/DX2                !
 ! D35   D(8,7,10,24)           41.4332         estimate D2E/DX2                !
 ! D36   D(9,7,10,11)          -60.0            estimate D2E/DX2                !
 ! D37   D(9,7,10,12)          180.0            estimate D2E/DX2                !
 ! D38   D(9,7,10,13)           60.0            estimate D2E/DX2                !
 ! D39   D(9,7,10,24)          161.4332         estimate D2E/DX2                !
 ! D40   D(7,10,13,14)         180.0            estimate D2E/DX2                !
 ! D41   D(7,10,13,15)         -60.0            estimate D2E/DX2                !
 ! D42   D(7,10,13,16)          60.0            estimate D2E/DX2                !
 ! D43   D(11,10,13,14)        -60.0            estimate D2E/DX2                !
 ! D44   D(11,10,13,15)         60.0            estimate D2E/DX2                !
 ! D45   D(11,10,13,16)       -180.0            estimate D2E/DX2                !
 ! D46   D(12,10,13,14)         60.0            estimate D2E/DX2                !
 ! D47   D(12,10,13,15)        180.0            estimate D2E/DX2                !
 ! D48   D(12,10,13,16)        -60.0            estimate D2E/DX2                !
 ! D49   D(24,10,13,14)         42.0929         estimate D2E/DX2                !
 ! D50   D(24,10,13,15)        162.0929         estimate D2E/DX2                !
 ! D51   D(24,10,13,16)        -77.9071         estimate D2E/DX2                !
 ! D52   D(7,10,24,22)         -97.1688         estimate D2E/DX2                !
 ! D53   D(11,10,24,22)        122.7677         estimate D2E/DX2                !
 ! D54   D(13,10,24,22)         14.3069         estimate D2E/DX2                !
 ! D55   D(21,22,24,10)        -11.5625         estimate D2E/DX2                !
 ! D56   D(21,22,24,12)       -143.158          estimate D2E/DX2                !
 ! D57   D(23,22,24,10)        168.4374         estimate D2E/DX2                !
 ! D58   D(23,22,24,12)         36.842          estimate D2E/DX2                !
 --------------------------------------------------------------------------------
 Trust Radius=3.00D-01 FncErr=1.00D-07 GrdErr=1.00D-06
 Number of steps in this run= 136 maximum allowed number of steps= 144.
 GradGradGradGradGradGradGradGradGradGradGradGradGradGradGradGradGradGrad

                          Input orientation:                          
 ---------------------------------------------------------------------
 Center     Atomic      Atomic             Coordinates (Angstroms)
 Number     Number       Type             X           Y           Z
 ---------------------------------------------------------------------
      1          6           0       -2.131144   -0.800188    0.115872
      2          1           0       -1.891444   -1.813798    0.360899
      3          1           0       -3.193532   -0.690643    0.050811
      4          6           0       -1.584671    0.135469    1.210181
      5          1           0       -1.824372    1.149079    0.965155
      6          1           0       -2.027664   -0.118496    2.150478
      7          6           0       -0.055627   -0.022195    1.303821
      8          1           0        0.387366    0.231771    0.363524
      9          1           0        0.184074   -1.035805    1.548847
     10          6           0        0.490846    0.913462    2.398130
     11          1           0        0.047853    0.659497    3.338427
     12          1           0        0.251145    1.927073    2.153103
     13          7           0        1.950388    0.762965    2.487513
     14          1           0        2.305241    1.370535    3.198103
     15          1           0        2.174407   -0.184334    2.716510
     16          1           0        2.364400    1.000316    1.608731
     17          6           0       -1.493565   -0.434668   -1.237452
     18          1           0       -0.431178   -0.544214   -1.172391
     19          1           0       -1.873258   -1.084768   -1.997784
     20          1           0       -1.733266    0.578942   -1.482479
     21          8           0        2.562402    2.856438    2.519203
     22          6           0        1.304005    2.853860    2.518918
     23          1           0        0.767102    3.778861    2.550669
     24          8           0        0.677046    1.763412    2.481289
 ---------------------------------------------------------------------
                    Distance matrix (angstroms):
                    1          2          3          4          5
     1  C    0.000000
     2  H    1.070000   0.000000
     3  H    1.070000   1.747303   0.000000
     4  C    1.540000   2.148263   2.148263   0.000000
     5  H    2.148263   3.024610   2.468846   1.070000   0.000000
     6  H    2.148263   2.468846   2.468846   1.070000   1.747303
     7  C    2.514809   2.732978   3.444314   1.540000   2.148263
     8  H    2.732978   3.062243   3.710993   2.148263   2.468846
     9  H    2.732978   2.514809   3.710993   2.148263   3.024610
    10  C    3.875582   4.154945   4.653783   2.514809   2.732978
    11  H    4.154945   4.329403   4.810184   2.732978   3.062243
    12  H    4.154945   4.668704   4.810184   2.732978   2.514809
    13  N    4.972628   5.091352   5.874555   3.810770   4.088455
    14  H    5.821830   5.983466   6.662612   4.539673   4.699872
    15  H    5.067580   4.973450   6.014737   4.062261   4.564588
    16  H    5.067580   5.252479   6.014737   4.062261   4.240535
    17  C    1.540000   2.148263   2.148263   2.514809   2.732978
    18  H    2.148263   2.468846   3.024610   2.732978   3.062243
    19  H    2.148263   2.468846   2.468846   3.444314   3.710993
    20  H    2.148263   3.024610   2.468846   2.732978   2.514809
    21  O    6.416876   6.804861   7.197605   5.129857   4.957210
    22  C    5.561200   6.054335   6.235615   4.176948   3.886798
    23  H    5.941024   6.568166   6.473977   4.538948   4.018127
    24  O    4.478077   4.887702   5.187579   3.062887   2.988839
                    6          7          8          9         10
     6  H    0.000000
     7  C    2.148263   0.000000
     8  H    3.024610   1.070000   0.000000
     9  H    2.468846   1.070000   1.747303   0.000000
    10  C    2.732978   1.540000   2.148263   2.148263   0.000000
    11  H    2.514809   2.148263   3.024610   2.468846   1.070000
    12  H    3.062243   2.148263   2.468846   3.024610   1.070000
    13  N    4.088455   2.457987   2.690081   2.690081   1.470000
    14  H    4.699872   3.331921   3.606919   3.606919   2.034920
    15  H    4.240535   2.644813   2.983823   2.459648   2.034920
    16  H    4.564588   2.644813   2.459648   2.983823   2.034920
    17  C    3.444314   2.948875   2.558352   3.307461   4.355778
    18  H    3.710993   2.558352   1.905571   2.832902   3.965295
    19  H    4.262112   3.915793   3.524126   4.100439   5.376427
    20  H    3.710993   3.307461   2.832902   3.933514   4.485276
    21  O    5.482236   4.076489   4.033189   4.663432   2.842738
    22  C    4.480030   3.405401   3.515865   4.162304   2.107359
    23  H    4.812512   4.084059   4.184454   4.952230   2.882724
    24  O    3.311567   2.260892   2.629595   2.991335   0.874071
                   11         12         13         14         15
    11  H    0.000000
    12  H    1.747303   0.000000
    13  N    2.086720   2.086720   0.000000
    14  H    2.370879   2.370879   1.000000   0.000000
    15  H    2.370879   2.911082   1.000000   1.632993   0.000000
    16  H    2.911082   2.370879   1.000000   1.632993   1.632993
    17  C    4.950943   4.485276   5.212533   6.112596   5.399120
    18  H    4.693172   4.199016   4.558011   5.500497   4.694905
    19  H    5.933655   5.551048   6.176752   7.105322   6.278450
    20  H    5.140039   4.355778   5.418856   6.232495   5.786536
    21  O    3.438115   2.517868   2.181329   1.653767   3.071769
    22  C    2.657959   1.449575   2.188753   1.914163   3.166586
    23  H    3.296712   1.963006   3.240337   2.930030   4.208910
    24  O    1.532709   0.562034   1.619362   1.821865   2.468022
                   16         17         18         19         20
    16  H    0.000000
    17  C    5.004381   0.000000
    18  H    4.235029   1.070000   0.000000
    19  H    5.942413   1.070000   1.747303   0.000000
    20  H    5.150146   1.070000   1.747303   1.747303   0.000000
    21  O    2.076862   6.433872   5.844127   7.457302   6.297080
    22  C    2.321315   5.722860   5.308816   6.782948   5.514657
    23  H    3.340498   6.100353   5.829754   7.163436   5.723426
    24  O    2.047154   4.834474   4.461241   5.888826   4.787904
                   21         22         23         24
    21  O    0.000000
    22  C    1.258400   0.000000
    23  H    2.018653   1.070000   0.000000
    24  O    2.179613   1.258400   2.018653   0.000000
 Stoichiometry    C6H15NO2
 Framework group  C1[X(C6H15NO2)]
 Deg. of freedom    66
 Full point group                 C1      NOp   1
 Largest Abelian subgroup         C1      NOp   1
 Largest concise Abelian subgroup C1      NOp   1
                         Standard orientation:                         
 ---------------------------------------------------------------------
 Center     Atomic      Atomic             Coordinates (Angstroms)
 Number     Number       Type             X           Y           Z
 ---------------------------------------------------------------------
      1          6           0        3.156505   -0.176766   -0.299686
      2          1           0        3.385533   -1.150523    0.080108
      3          1           0        3.850513    0.076492   -1.073709
      4          6           0        1.726321   -0.171822   -0.870782
      5          1           0        1.497292    0.801935   -1.250576
      6          1           0        1.655659   -0.888885   -1.661811
      7          6           0        0.727467   -0.536324    0.243233
      8          1           0        0.798128    0.180739    1.034263
      9          1           0        0.956496   -1.510081    0.623027
     10          6           0       -0.702717   -0.531380   -0.327862
     11          1           0       -0.773378   -1.248443   -1.118892
     12          1           0       -0.931745    0.442377   -0.707656
     13          7           0       -1.656168   -0.879314    0.735515
     14          1           0       -2.584859   -0.876103    0.364674
     15          1           0       -1.442123   -1.789367    1.090463
     16          1           0       -1.590129   -0.209162    1.474795
     17          6           0        3.258204    0.855268    0.838805
     18          1           0        2.564195    0.602010    1.612828
     19          1           0        4.251903    0.851833    1.235605
     20          1           0        3.029175    1.829025    0.459011
     21          8           0       -3.160725    0.672303    0.440578
     22          6           0       -2.311483    0.821728   -0.475954
     23          1           0       -2.441819    1.593586   -1.205439
     24          8           0       -1.308956    0.063391   -0.534557
 ---------------------------------------------------------------------
 Rotational constants (GHZ):      4.3151328      0.6959149      0.6919041
 Standard basis: 6-311+G(d) (5D, 7F)
 There are   243 symmetry adapted basis functions of A   symmetry.
 Integral buffers will be    131072 words long.
 Raffenetti 2 integral format.
 Two-electron integral symmetry is turned on.
   243 basis functions,   399 primitive gaussians,   252 cartesian basis functions
    37 alpha electrons       37 beta electrons
       nuclear repulsion energy       543.1019415645 Hartrees.
 NAtoms=   24 NActive=   24 NUniq=   24 SFac= 7.50D-01 NAtFMM=   80 NAOKFM=F Big=F
 One-electron integrals computed using PRISM.
 NBasis=   243 RedAO= T  NBF=   243
 NBsUse=   243 1.00D-06 NBFU=   243
 Harris functional with IExCor= 1009 diagonalized for initial guess.
 ExpMin= 4.38D-02 ExpMax= 8.59D+03 ExpMxC= 1.30D+03 IAcc=2 IRadAn=         0 AccDes= 0.00D+00
 HarFok:  IExCor= 1009 AccDes= 0.00D+00 IRadAn=         0 IDoV= 1
 ScaDFX=  1.000000  1.000000  1.000000  1.000000
 FoFCou: FMM=F IPFlag=           0 FMFlag=      100000 FMFlg1=           0
         NFxFlg=           0 DoJE=T BraDBF=F KetDBF=T FulRan=T
         Omega=  0.000000  0.000000  1.000000  0.000000  0.000000 ICntrl=     500 IOpCl=  0
         NMat0=    1 NMatS0=    1 NMatT0=    0 NMatD0=    1 NMtDS0=    0 NMtDT0=    0
         I1Cent=           4 NGrid=           0.
 Petite list used in FoFCou.
 Initial guess orbital symmetries:
       Occupied  (A) (A) (A) (A) (A) (A) (A) (A) (A) (A) (A) (A)
                 (A) (A) (A) (A) (A) (A) (A) (A) (A) (A) (A) (A)
                 (A) (A) (A) (A) (A) (A) (A) (A) (A) (A) (A) (A)
                 (A)
       Virtual   (A) (A) (A) (A) (A) (A) (A) (A) (A) (A) (A) (A)
                 (A) (A) (A) (A) (A) (A) (A) (A) (A) (A) (A) (A)
                 (A) (A) (A) (A) (A) (A) (A) (A) (A) (A) (A) (A)
                 (A) (A) (A) (A) (A) (A) (A) (A) (A) (A) (A) (A)
                 (A) (A) (A) (A) (A) (A) (A) (A) (A) (A) (A) (A)
                 (A) (A) (A) (A) (A) (A) (A) (A) (A) (A) (A) (A)
                 (A) (A) (A) (A) (A) (A) (A) (A) (A) (A) (A) (A)
                 (A) (A) (A) (A) (A) (A) (A) (A) (A) (A) (A) (A)
                 (A) (A) (A) (A) (A) (A) (A) (A) (A) (A) (A) (A)
                 (A) (A) (A) (A) (A) (A) (A) (A) (A) (A) (A) (A)
                 (A) (A) (A) (A) (A) (A) (A) (A) (A) (A) (A) (A)
                 (A) (A) (A) (A) (A) (A) (A) (A) (A) (A) (A) (A)
                 (A) (A) (A) (A) (A) (A) (A) (A) (A) (A) (A) (A)
                 (A) (A) (A) (A) (A) (A) (A) (A) (A) (A) (A) (A)
                 (A) (A) (A) (A) (A) (A) (A) (A) (A) (A) (A) (A)
                 (A) (A) (A) (A) (A) (A) (A) (A) (A) (A) (A) (A)
                 (A) (A) (A) (A) (A) (A) (A) (A) (A) (A) (A) (A)
                 (A) (A)
 The electronic state of the initial guess is 1-A.
 Requested convergence on RMS density matrix=1.00D-08 within 128 cycles.
 Requested convergence on MAX density matrix=1.00D-06.
 Requested convergence on             energy=1.00D-06.
 No special actions if energy rises.
 Restarting incremental Fock formation.
 SCF Done:  E(RM062X) =  -441.018232473     A.U. after   27 cycles
             Convg  =    0.2848D-08             -V/T =  1.9849

 **********************************************************************

            Population analysis using the SCF density.

 **********************************************************************

 Orbital symmetries:
       Occupied  (A) (A) (A) (A) (A) (A) (A) (A) (A) (A) (A) (A)
                 (A) (A) (A) (A) (A) (A) (A) (A) (A) (A) (A) (A)
                 (A) (A) (A) (A) (A) (A) (A) (A) (A) (A) (A) (A)
                 (A)
       Virtual   (A) (A) (A) (A) (A) (A) (A) (A) (A) (A) (A) (A)
                 (A) (A) (A) (A) (A) (A) (A) (A) (A) (A) (A) (A)
                 (A) (A) (A) (A) (A) (A) (A) (A) (A) (A) (A) (A)
                 (A) (A) (A) (A) (A) (A) (A) (A) (A) (A) (A) (A)
                 (A) (A) (A) (A) (A) (A) (A) (A) (A) (A) (A) (A)
                 (A) (A) (A) (A) (A) (A) (A) (A) (A) (A) (A) (A)
                 (A) (A) (A) (A) (A) (A) (A) (A) (A) (A) (A) (A)
                 (A) (A) (A) (A) (A) (A) (A) (A) (A) (A) (A) (A)
                 (A) (A) (A) (A) (A) (A) (A) (A) (A) (A) (A) (A)
                 (A) (A) (A) (A) (A) (A) (A) (A) (A) (A) (A) (A)
                 (A) (A) (A) (A) (A) (A) (A) (A) (A) (A) (A) (A)
                 (A) (A) (A) (A) (A) (A) (A) (A) (A) (A) (A) (A)
                 (A) (A) (A) (A) (A) (A) (A) (A) (A) (A) (A) (A)
                 (A) (A) (A) (A) (A) (A) (A) (A) (A) (A) (A) (A)
                 (A) (A) (A) (A) (A) (A) (A) (A) (A) (A) (A) (A)
                 (A) (A) (A) (A) (A) (A) (A) (A) (A) (A) (A) (A)
                 (A) (A) (A) (A) (A) (A) (A) (A) (A) (A) (A) (A)
                 (A) (A)
 The electronic state is 1-A.
 Alpha  occ. eigenvalues --  -19.82973 -19.50630 -14.84430 -10.73439 -10.58659
 Alpha  occ. eigenvalues --  -10.57827 -10.56860 -10.55632 -10.54002  -1.81213
 Alpha  occ. eigenvalues --   -1.27264  -1.17694  -1.04525  -1.01649  -0.95005
 Alpha  occ. eigenvalues --   -0.93488  -0.87684  -0.79386  -0.71748  -0.68689
 Alpha  occ. eigenvalues --   -0.67298  -0.65258  -0.58890  -0.57853  -0.54768
 Alpha  occ. eigenvalues --   -0.53507  -0.51069  -0.48850  -0.47064  -0.44697
 Alpha  occ. eigenvalues --   -0.43625  -0.43137  -0.41889  -0.41747  -0.34949
 Alpha  occ. eigenvalues --   -0.29809  -0.10952
 Alpha virt. eigenvalues --   -0.01843  -0.00318   0.00753   0.01352   0.02271
 Alpha virt. eigenvalues --    0.03605   0.03930   0.04536   0.05088   0.06321
 Alpha virt. eigenvalues --    0.06644   0.07241   0.07739   0.08295   0.08516
 Alpha virt. eigenvalues --    0.09624   0.10153   0.11339   0.11763   0.12148
 Alpha virt. eigenvalues --    0.13109   0.13389   0.14382   0.15158   0.15539
 Alpha virt. eigenvalues --    0.16072   0.16999   0.18438   0.19034   0.19578
 Alpha virt. eigenvalues --    0.20316   0.20503   0.21009   0.22011   0.22397
 Alpha virt. eigenvalues --    0.24135   0.24552   0.24758   0.25125   0.25281
 Alpha virt. eigenvalues --    0.25590   0.26275   0.26831   0.27174   0.28182
 Alpha virt. eigenvalues --    0.28774   0.30666   0.31142   0.31837   0.32995
 Alpha virt. eigenvalues --    0.33639   0.34072   0.34806   0.35971   0.37104
 Alpha virt. eigenvalues --    0.38805   0.40463   0.42137   0.43300   0.44549
 Alpha virt. eigenvalues --    0.45769   0.48556   0.49793   0.49946   0.52640
 Alpha virt. eigenvalues --    0.54836   0.56591   0.58212   0.59467   0.60171
 Alpha virt. eigenvalues --    0.61818   0.62159   0.63570   0.65784   0.66590
 Alpha virt. eigenvalues --    0.68108   0.69304   0.69896   0.70768   0.72088
 Alpha virt. eigenvalues --    0.72533   0.73314   0.73893   0.74352   0.76654
 Alpha virt. eigenvalues --    0.77050   0.77122   0.78220   0.79495   0.80558
 Alpha virt. eigenvalues --    0.81076   0.85585   0.85924   0.90948   0.93579
 Alpha virt. eigenvalues --    0.94993   0.98009   1.03391   1.05434   1.07084
 Alpha virt. eigenvalues --    1.11071   1.12644   1.16162   1.18639   1.22735
 Alpha virt. eigenvalues --    1.24247   1.24982   1.26587   1.29662   1.35341
 Alpha virt. eigenvalues --    1.40442   1.41296   1.44978   1.46865   1.50995
 Alpha virt. eigenvalues --    1.52660   1.54238   1.56287   1.59031   1.60814
 Alpha virt. eigenvalues --    1.62819   1.63850   1.65299   1.68390   1.71260
 Alpha virt. eigenvalues --    1.72010   1.75074   1.76644   1.80159   1.80595
 Alpha virt. eigenvalues --    1.84557   1.87048   1.91356   1.97324   2.00948
 Alpha virt. eigenvalues --    2.02242   2.04298   2.07593   2.10222   2.11944
 Alpha virt. eigenvalues --    2.14116   2.20543   2.30660   2.34294   2.44396
 Alpha virt. eigenvalues --    2.50969   2.53895   2.55404   2.56179   2.59865
 Alpha virt. eigenvalues --    2.60053   2.62384   2.63557   2.64773   2.68697
 Alpha virt. eigenvalues --    2.69234   2.69697   2.76592   2.86300   2.90616
 Alpha virt. eigenvalues --    2.91574   2.95405   3.01360   3.04022   3.05630
 Alpha virt. eigenvalues --    3.07459   3.16257   3.19125   3.22757   3.25051
 Alpha virt. eigenvalues --    3.28977   3.31065   3.35499   3.37649   3.39456
 Alpha virt. eigenvalues --    3.44108   3.46111   3.53568   3.56598   3.62703
 Alpha virt. eigenvalues --    3.70981   3.77311   3.91523   3.94979   4.06932
 Alpha virt. eigenvalues --    4.11632   4.14692   4.27298   4.55602   4.65728
 Alpha virt. eigenvalues --    4.80368   5.25072   5.26502   5.38222   5.75894
 Alpha virt. eigenvalues --    6.03837   6.64551  23.55261  23.69160  23.76797
 Alpha virt. eigenvalues --   23.78770  23.94032  24.54368  35.51960  50.16635
 Alpha virt. eigenvalues --   50.64162
          Condensed to atoms (all electrons):
              1          2          3          4          5          6
     1  C    7.115487   0.438201   0.379019  -1.102026  -0.001587   0.007347
     2  H    0.438201   0.419250  -0.025974   0.012980   0.003409  -0.005237
     3  H    0.379019  -0.025974   0.423961  -0.067612  -0.005397  -0.004313
     4  C   -1.102026   0.012980  -0.067612   7.070899   0.450400   0.348470
     5  H   -0.001587   0.003409  -0.005397   0.450400   0.408732  -0.025909
     6  H    0.007347  -0.005237  -0.004313   0.348470  -0.025909   0.398601
     7  C   -0.180519  -0.026644   0.041512  -0.537427  -0.120121   0.021958
     8  H    0.057818   0.000092  -0.000395  -0.116177  -0.003170   0.004552
     9  H   -0.032913   0.002133   0.000074   0.031332   0.003113  -0.004083
    10  C   -0.068549  -0.007700   0.004224   0.346665   0.027526  -0.064394
    11  H    0.018859   0.000107  -0.000049  -0.037487  -0.000711   0.004836
    12  H   -0.252913   0.001039   0.000574  -0.011532   0.000298   0.004580
    13  N   -0.005225   0.000112   0.000241   0.030595   0.002136  -0.004563
    14  H   -0.002848   0.000007   0.000000  -0.014064  -0.000158   0.000277
    15  H    0.001210  -0.000016   0.000001   0.010832   0.000058  -0.000056
    16  H   -0.000537   0.000000  -0.000004   0.009225  -0.000043   0.000101
    17  C   -0.252826  -0.073888  -0.014934   0.183002  -0.038205   0.015470
    18  H   -0.009040  -0.006225   0.005173  -0.032244   0.000465  -0.000475
    19  H   -0.082341  -0.003593  -0.003089   0.031055  -0.000365  -0.000129
    20  H    0.019194   0.004441  -0.006647  -0.037746   0.002575  -0.000029
    21  O    0.006438  -0.000006  -0.000002   0.001716   0.000474  -0.000113
    22  C    0.036107  -0.000222   0.000023   0.021323   0.005619  -0.000574
    23  H   -0.000563   0.000000   0.000000  -0.000114   0.000323  -0.000058
    24  O    0.413852  -0.002299  -0.000969  -0.035555   0.009424  -0.007698
              7          8          9         10         11         12
     1  C   -0.180519   0.057818  -0.032913  -0.068549   0.018859  -0.252913
     2  H   -0.026644   0.000092   0.002133  -0.007700   0.000107   0.001039
     3  H    0.041512  -0.000395   0.000074   0.004224  -0.000049   0.000574
     4  C   -0.537427  -0.116177   0.031332   0.346665  -0.037487  -0.011532
     5  H   -0.120121  -0.003170   0.003113   0.027526  -0.000711   0.000298
     6  H    0.021958   0.004552  -0.004083  -0.064394   0.004836   0.004580
     7  C    9.249794   0.490752   0.351813  -2.155982  -0.010009   1.273986
     8  H    0.490752   0.446118  -0.035642  -0.147209   0.008025  -0.021195
     9  H    0.351813  -0.035642   0.393591  -0.000182  -0.010295   0.014867
    10  C   -2.155982  -0.147209  -0.000182  10.485923   0.499796  -0.090819
    11  H   -0.010009   0.008025  -0.010295   0.499796   0.449110  -0.058123
    12  H    1.273986  -0.021195   0.014867  -0.090819  -0.058123   2.617307
    13  N   -0.455101  -0.006099  -0.025698  -0.420634  -0.088612  -0.119457
    14  H    0.099730   0.001441  -0.000068   0.046028   0.013743   0.087841
    15  H   -0.023982  -0.004291   0.007647   0.031660  -0.013978  -0.015818
    16  H   -0.054980   0.006208  -0.000755   0.074729   0.000567  -0.018053
    17  C    0.080971  -0.004988   0.001127  -0.043733  -0.000879   0.054414
    18  H   -0.008679  -0.002988   0.001600   0.005875  -0.000123   0.001569
    19  H    0.008920   0.000462  -0.000267  -0.000241   0.000002  -0.000116
    20  H    0.000160   0.000357  -0.000073  -0.005403   0.000004  -0.001547
    21  O   -0.013935  -0.003160   0.000788  -0.008149  -0.001955  -0.066449
    22  C   -0.351455   0.004239  -0.000419  -0.463946  -0.016247  -0.439463
    23  H   -0.033519  -0.000421   0.000080   0.062538  -0.002372  -0.031871
    24  O   -1.614863   0.061865   0.004576  -1.059662  -0.039301  -2.265488
             13         14         15         16         17         18
     1  C   -0.005225  -0.002848   0.001210  -0.000537  -0.252826  -0.009040
     2  H    0.000112   0.000007  -0.000016   0.000000  -0.073888  -0.006225
     3  H    0.000241   0.000000   0.000001  -0.000004  -0.014934   0.005173
     4  C    0.030595  -0.014064   0.010832   0.009225   0.183002  -0.032244
     5  H    0.002136  -0.000158   0.000058  -0.000043  -0.038205   0.000465
     6  H   -0.004563   0.000277  -0.000056   0.000101   0.015470  -0.000475
     7  C   -0.455101   0.099730  -0.023982  -0.054980   0.080971  -0.008679
     8  H   -0.006099   0.001441  -0.004291   0.006208  -0.004988  -0.002988
     9  H   -0.025698  -0.000068   0.007647  -0.000755   0.001127   0.001600
    10  C   -0.420634   0.046028   0.031660   0.074729  -0.043733   0.005875
    11  H   -0.088612   0.013743  -0.013978   0.000567  -0.000879  -0.000123
    12  H   -0.119457   0.087841  -0.015818  -0.018053   0.054414   0.001569
    13  N    8.846126   0.157754   0.185087   0.265587  -0.004686  -0.001006
    14  H    0.157754   0.301217  -0.037273  -0.008532   0.001079  -0.000028
    15  H    0.185087  -0.037273   0.360477  -0.012286  -0.000291   0.000133
    16  H    0.265587  -0.008532  -0.012286   0.232012  -0.000060  -0.000048
    17  C   -0.004686   0.001079  -0.000291  -0.000060   5.903187   0.382541
    18  H   -0.001006  -0.000028   0.000133  -0.000048   0.382541   0.475253
    19  H    0.000003   0.000000  -0.000001   0.000004   0.405779  -0.027188
    20  H    0.000448  -0.000001  -0.000004  -0.000012   0.375982  -0.033057
    21  O   -0.175121   0.073214   0.027998  -0.022921  -0.003155   0.000012
    22  C    0.357736  -0.103879   0.022427  -0.025692  -0.007271   0.000905
    23  H    0.003654   0.000429   0.000923  -0.000650  -0.000179   0.000006
    24  O   -0.681126  -0.157074   0.042283   0.045392  -0.084958  -0.002417
             19         20         21         22         23         24
     1  C   -0.082341   0.019194   0.006438   0.036107  -0.000563   0.413852
     2  H   -0.003593   0.004441  -0.000006  -0.000222   0.000000  -0.002299
     3  H   -0.003089  -0.006647  -0.000002   0.000023   0.000000  -0.000969
     4  C    0.031055  -0.037746   0.001716   0.021323  -0.000114  -0.035555
     5  H   -0.000365   0.002575   0.000474   0.005619   0.000323   0.009424
     6  H   -0.000129  -0.000029  -0.000113  -0.000574  -0.000058  -0.007698
     7  C    0.008920   0.000160  -0.013935  -0.351455  -0.033519  -1.614863
     8  H    0.000462   0.000357  -0.003160   0.004239  -0.000421   0.061865
     9  H   -0.000267  -0.000073   0.000788  -0.000419   0.000080   0.004576
    10  C   -0.000241  -0.005403  -0.008149  -0.463946   0.062538  -1.059662
    11  H    0.000002   0.000004  -0.001955  -0.016247  -0.002372  -0.039301
    12  H   -0.000116  -0.001547  -0.066449  -0.439463  -0.031871  -2.265488
    13  N    0.000003   0.000448  -0.175121   0.357736   0.003654  -0.681126
    14  H    0.000000  -0.000001   0.073214  -0.103879   0.000429  -0.157074
    15  H   -0.000001  -0.000004   0.027998   0.022427   0.000923   0.042283
    16  H    0.000004  -0.000012  -0.022921  -0.025692  -0.000650   0.045392
    17  C    0.405779   0.375982  -0.003155  -0.007271  -0.000179  -0.084958
    18  H   -0.027188  -0.033057   0.000012   0.000905   0.000006  -0.002417
    19  H    0.417870  -0.021736   0.000001   0.000016   0.000000   0.000218
    20  H   -0.021736   0.430286   0.000033   0.000002   0.000003   0.002166
    21  O    0.000001   0.000033   9.010008  -0.223429  -0.016346  -0.048487
    22  C    0.000016   0.000002  -0.223429   7.151797   0.453346   0.260251
    23  H    0.000000   0.000003  -0.016346   0.453346   0.442539  -0.136323
    24  O    0.000218   0.002166  -0.048487   0.260251  -0.136323  13.046147
 Mulliken atomic charges:
              1
     1  C   -0.501644
     2  H    0.270033
     3  H    0.274579
     4  C   -0.556511
     5  H    0.281112
     6  H    0.311441
     7  C   -0.032380
     8  H    0.263804
     9  H    0.297652
    10  C   -1.048362
    11  H    0.285090
    12  H    0.336367
    13  N   -0.862153
    14  H    0.541164
    15  H    0.417258
    16  H    0.510750
    17  C   -0.873498
    18  H    0.249984
    19  H    0.274736
    20  H    0.270604
    21  O   -0.537454
    22  C   -0.681195
    23  H    0.258576
    24  O    0.250046
 Sum of Mulliken atomic charges =   0.00000
 Mulliken charges with hydrogens summed into heavy atoms:
              1
     1  C    0.042967
     4  C    0.036042
     7  C    0.529075
    10  C   -0.763271
    13  N    0.607019
    17  C   -0.078173
    21  O   -0.537454
    22  C   -0.422619
    24  O    0.586413
 Sum of Mulliken charges with hydrogens summed into heavy atoms =   0.00000
 Electronic spatial extent (au):  <R**2>=           1776.6216
 Charge=              0.0000 electrons
 Dipole moment (field-independent basis, Debye):
    X=              7.1773    Y=             -2.4207    Z=              2.4295  Tot=              7.9546
 Quadrupole moment (field-independent basis, Debye-Ang):
   XX=            -82.3302   YY=            -63.7923   ZZ=            -62.1953
   XY=              7.9070   XZ=             -3.2789   YZ=             -8.5454
 Traceless Quadrupole moment (field-independent basis, Debye-Ang):
   XX=            -12.8909   YY=              5.6470   ZZ=              7.2440
   XY=              7.9070   XZ=             -3.2789   YZ=             -8.5454
 Octapole moment (field-independent basis, Debye-Ang**2):
  XXX=             99.4321  YYY=              0.7040  ZZZ=             25.3383  XYY=              1.6941
  XXY=            -24.2961  XXZ=              1.2600  XZZ=              5.5951  YZZ=              4.9114
  YYZ=              8.4619  XYZ=             12.8573
 Hexadecapole moment (field-independent basis, Debye-Ang**3):
 XXXX=          -2201.4682 YYYY=           -314.7173 ZZZZ=           -293.9145 XXXY=             82.2954
 XXXZ=             -3.2860 YYYX=             -0.6978 YYYZ=            -40.0516 ZZZX=            -50.0747
 ZZZY=            -27.6703 XXYY=           -372.4738 XXZZ=           -389.2515 YYZZ=            -98.6020
 XXYZ=            -39.3695 YYXZ=             -9.2564 ZZXY=             -4.9929
 N-N= 5.431019415645D+02 E-N=-2.116934694128D+03  KE= 4.477852125382D+02
 Calling FoFJK, ICntrl=      2127 FMM=F ISym2X=0 I1Cent= 0 IOpClX= 0 NMat=1 NMatS=1 NMatT=0.
 ***** Axes restored to original set *****
 -------------------------------------------------------------------
 Center     Atomic                   Forces (Hartrees/Bohr)
 Number     Number              X              Y              Z
 -------------------------------------------------------------------
      1        6           0.018039578    0.026088390   -0.007274456
      2        1           0.000689392   -0.015780078    0.005111719
      3        1          -0.015410873   -0.001420563    0.000358145
      4        6           0.013644796   -0.025107018   -0.015234365
      5        1          -0.006816836    0.017133412   -0.003362600
      6        1          -0.005413734   -0.000195095    0.015701467
      7        6          -0.031846080    0.037799614   -0.010336387
      8        1           0.008972257    0.003362706   -0.015019597
      9        1           0.008499917   -0.011236514    0.010856369
     10        6          -0.239625922   -2.137732501   -0.064696993
     11        1          -0.044304863   -0.087942471    0.068745794
     12        1          -1.572142150    0.764018910   -1.177295878
     13        7           0.151841884   -0.291906817    0.017975362
     14        1           0.027075936    0.017852648    0.014089114
     15        1           0.022206420   -0.023606229    0.004037935
     16        1           0.012041231    0.008789696   -0.008688877
     17        6          -0.014302371   -0.011355859    0.019614418
     18        1           0.012307575   -0.002444931   -0.006830553
     19        1          -0.002737964   -0.006611546   -0.013193846
     20        1          -0.001610653    0.014569138   -0.006130932
     21        8           0.080612404    0.017872152   -0.004696424
     22        6           0.092638701    0.251666598    0.028321874
     23        1          -0.026841502   -0.009727717    0.004538905
     24        8           1.512482858    1.465914074    1.143409806
 -------------------------------------------------------------------
 Cartesian Forces:  Max     2.137732501 RMS     0.456901369

 GradGradGradGradGradGradGradGradGradGradGradGradGradGradGradGradGradGrad
 Berny optimization.
 Internal  Forces:  Max     1.644253570 RMS     0.224904909
 Search for a local minimum.
 Step number   1 out of a maximum of  136
 All quantities printed in internal units (Hartrees-Bohrs-Radians)
 Mixed Optimization -- RFO/linear search
 Second derivative matrix not updated -- first step.
     Eigenvalues ---    0.00237   0.00237   0.00237   0.00237   0.00766
     Eigenvalues ---    0.03423   0.03565   0.03565   0.03840   0.03840
     Eigenvalues ---    0.03878   0.04345   0.04896   0.04896   0.05028
     Eigenvalues ---    0.05118   0.05118   0.05720   0.05720   0.05750
     Eigenvalues ---    0.07203   0.07655   0.07655   0.07916   0.09261
     Eigenvalues ---    0.11279   0.11701   0.11701   0.13393   0.16000
     Eigenvalues ---    0.16000   0.16000   0.16000   0.16000   0.16000
     Eigenvalues ---    0.16000   0.19270   0.20996   0.21928   0.21948
     Eigenvalues ---    0.21948   0.22000   0.27913   0.28519   0.28519
     Eigenvalues ---    0.28519   0.28519   0.35740   0.37230   0.37230
     Eigenvalues ---    0.37230   0.37230   0.37230   0.37230   0.37230
     Eigenvalues ---    0.37230   0.37230   0.37230   0.37230   0.47688
     Eigenvalues ---    0.47688   0.47688   0.80209   0.80209   3.13479
     Eigenvalues ---    7.173011000.000001000.000001000.000001000.00000
     Eigenvalues --- 1000.000001000.000001000.000001000.000001000.00000
     Eigenvalues --- 1000.000001000.000001000.000001000.000001000.00000
     Eigenvalues --- 1000.000001000.000001000.000001000.000001000.00000
     Eigenvalues --- 1000.000001000.000001000.000001000.000001000.00000
     Eigenvalues --- 1000.000001000.000001000.000001000.000001000.00000
     Eigenvalues --- 1000.000001000.000001000.000001000.000001000.00000
     Eigenvalues --- 1000.000001000.000001000.000001000.000001000.00000
     Eigenvalues --- 1000.000001000.000001000.000001000.000001000.00000
     Eigenvalues --- 1000.000001000.000001000.000001000.000001000.00000
     Eigenvalues --- 1000.000001000.000001000.000001000.000001000.00000
     Eigenvalues --- 1000.000001000.000001000.000001000.000001000.00000
     Eigenvalues --- 1000.00000
 RFO step:  Lambda=-1.24701463D+00 EMin= 2.36824063D-03
 Linear search not attempted -- first point.
 Maximum step size (   0.300) exceeded in Quadratic search.
    -- Step size scaled by   0.516
 Iteration  1 RMS(Cart)=  0.06104312 RMS(Int)=  0.00119260
 Iteration  2 RMS(Cart)=  0.00154920 RMS(Int)=  0.00036771
 Iteration  3 RMS(Cart)=  0.00000489 RMS(Int)=  0.00036770
 Iteration  4 RMS(Cart)=  0.00000001 RMS(Int)=  0.00036770
 Variable       Old X    -DE/DX   Delta X   Delta X   Delta X     New X
                                 (Linear)    (Quad)   (Total)
    R1        2.02201   0.01627   0.00000   0.00519   0.00519   2.02719
    R2        2.02201   0.01513   0.00000   0.00482   0.00482   2.02683
    R3        2.91018   0.00516   0.00000   0.00174   0.00174   2.91192
    R4        2.91018   0.00175   0.00000   0.00059   0.00059   2.91077
    R5        2.02201   0.01853   0.00000   0.00591   0.00591   2.02791
    R6        2.02201   0.01608   0.00000   0.00513   0.00513   2.02713
    R7        2.91018   0.00174   0.00000   0.00059   0.00059   2.91077
    R8        2.02201   0.01771   0.00000   0.00565   0.00565   2.02765
    R9        2.02201   0.01503   0.00000   0.00479   0.00479   2.02680
   R10        2.91018   0.00890   0.00000   0.00300   0.00300   2.91318
   R11        2.02201   0.09963   0.00000   0.03176   0.03176   2.05377
   R12        2.02201   1.19433   0.00000   0.13361   0.13234   2.15435
   R13        2.77790   0.24288   0.00000   0.07815   0.07815   2.85604
   R14        1.65176   1.64425   0.00000   0.10631   0.10711   1.75887
   R15        1.06209   1.06345   0.00000   0.13955   0.14066   1.20275
   R16        1.88973   0.03047   0.00000   0.00912   0.00912   1.89885
   R17        1.88973   0.02826   0.00000   0.00846   0.00846   1.89819
   R18        1.88973   0.01470   0.00000   0.00440   0.00440   1.89413
   R19        2.02201   0.01206   0.00000   0.00384   0.00384   2.02585
   R20        2.02201   0.01436   0.00000   0.00458   0.00458   2.02659
   R21        2.02201   0.01557   0.00000   0.00496   0.00496   2.02697
   R22        2.37803   0.08065   0.00000   0.02032   0.02032   2.39835
   R23        2.02201   0.00519   0.00000   0.00166   0.00166   2.02366
   R24        2.37803   0.29892   0.00000   0.07530   0.07530   2.45333
    A1        1.91063   0.00203   0.00000   0.00053   0.00053   1.91116
    A2        1.91063  -0.00630   0.00000  -0.00217  -0.00217   1.90846
    A3        1.91063  -0.00442   0.00000  -0.00144  -0.00144   1.90919
    A4        1.91063  -0.00753   0.00000  -0.00268  -0.00268   1.90795
    A5        1.91063  -0.00727   0.00000  -0.00257  -0.00256   1.90807
    A6        1.91063   0.02349   0.00000   0.00833   0.00833   1.91896
    A7        1.91063  -0.00705   0.00000  -0.00245  -0.00246   1.90817
    A8        1.91063  -0.00469   0.00000  -0.00160  -0.00160   1.90903
    A9        1.91063   0.02240   0.00000   0.00794   0.00794   1.91857
   A10        1.91063   0.00216   0.00000   0.00060   0.00059   1.91122
   A11        1.91063  -0.00344   0.00000  -0.00109  -0.00109   1.90954
   A12        1.91063  -0.00938   0.00000  -0.00338  -0.00338   1.90725
   A13        1.91063  -0.00120   0.00000  -0.00035  -0.00035   1.91029
   A14        1.91063   0.00307   0.00000   0.00120   0.00120   1.91184
   A15        1.91063   0.00466   0.00000   0.00164   0.00164   1.91227
   A16        1.91063   0.00176   0.00000   0.00064   0.00063   1.91127
   A17        1.91063   0.00127   0.00000   0.00053   0.00053   1.91116
   A18        1.91063  -0.00957   0.00000  -0.00365  -0.00365   1.90698
   A19        1.91063   0.00914   0.00000   0.00847   0.00828   1.91891
   A20        1.91063  -0.22762   0.00000  -0.04869  -0.04708   1.86356
   A21        1.91063  -0.08212   0.00000  -0.04288  -0.04271   1.86792
   A22        2.39499   0.03318   0.00000  -0.01180  -0.01168   2.38331
   A23        1.91063   0.00186   0.00000  -0.00114  -0.00210   1.90853
   A24        1.91063  -0.02007   0.00000  -0.00557  -0.00633   1.90430
   A25        1.80842  -0.02709   0.00000  -0.00164  -0.00169   1.80673
   A26        1.91063   0.31881   0.00000   0.08980   0.08853   1.99917
   A27        1.45278   0.08321   0.00000   0.05836   0.05875   1.51153
   A28        1.91063   0.01784   0.00000   0.00654   0.00653   1.91716
   A29        1.91063   0.01890   0.00000   0.00699   0.00697   1.91760
   A30        1.91063   0.00001   0.00000  -0.00005  -0.00005   1.91058
   A31        1.91063  -0.01421   0.00000  -0.00511  -0.00514   1.90549
   A32        1.91063  -0.01326   0.00000  -0.00497  -0.00497   1.90566
   A33        1.91063  -0.00928   0.00000  -0.00340  -0.00340   1.90723
   A34        1.91063   0.00851   0.00000   0.00313   0.00313   1.91376
   A35        1.91063   0.00365   0.00000   0.00133   0.00132   1.91196
   A36        1.91063   0.00243   0.00000   0.00090   0.00090   1.91153
   A37        1.91063  -0.00660   0.00000  -0.00243  -0.00243   1.90820
   A38        1.91063  -0.00427   0.00000  -0.00154  -0.00154   1.90909
   A39        1.91063  -0.00372   0.00000  -0.00138  -0.00138   1.90925
   A40        2.09440   0.00499   0.00000   0.00218   0.00218   2.09657
   A41        2.09440   0.04668   0.00000   0.01643   0.01643   2.11082
   A42        2.09440  -0.05167   0.00000  -0.01861  -0.01861   2.07579
   A43        2.82920   0.51721   0.00000   0.04675   0.04614   2.87534
   A44        1.71396   0.58486   0.00000   0.01215   0.01145   1.72541
    D1        3.14159   0.00604   0.00000   0.00233   0.00232  -3.13927
    D2       -1.04720   0.00150   0.00000   0.00057   0.00057  -1.04663
    D3        1.04720   0.00085   0.00000   0.00031   0.00031   1.04750
    D4       -1.04720   0.00006   0.00000   0.00001   0.00001  -1.04719
    D5        1.04720  -0.00448   0.00000  -0.00174  -0.00174   1.04546
    D6        3.14159  -0.00513   0.00000  -0.00201  -0.00201   3.13959
    D7        1.04720   0.00093   0.00000   0.00032   0.00032   1.04752
    D8        3.14159  -0.00361   0.00000  -0.00143  -0.00143   3.14016
    D9       -1.04720  -0.00426   0.00000  -0.00170  -0.00170  -1.04889
   D10       -1.04720  -0.00138   0.00000  -0.00051  -0.00051  -1.04771
   D11        1.04720  -0.00201   0.00000  -0.00077  -0.00076   1.04643
   D12        3.14159  -0.00284   0.00000  -0.00110  -0.00110   3.14050
   D13        3.14159   0.00329   0.00000   0.00129   0.00129  -3.14030
   D14       -1.04720   0.00266   0.00000   0.00104   0.00104  -1.04616
   D15        1.04720   0.00182   0.00000   0.00071   0.00071   1.04790
   D16        1.04720   0.00258   0.00000   0.00105   0.00105   1.04825
   D17        3.14159   0.00195   0.00000   0.00080   0.00080  -3.14080
   D18       -1.04720   0.00111   0.00000   0.00047   0.00047  -1.04673
   D19        1.04720   0.00097   0.00000   0.00042   0.00043   1.04762
   D20       -1.04720  -0.00234   0.00000  -0.00088  -0.00088  -1.04807
   D21        3.14159   0.00465   0.00000   0.00186   0.00186  -3.13973
   D22       -1.04720  -0.00201   0.00000  -0.00076  -0.00076  -1.04796
   D23        3.14159  -0.00531   0.00000  -0.00206  -0.00206   3.13953
   D24        1.04720   0.00168   0.00000   0.00067   0.00067   1.04787
   D25        3.14159   0.00319   0.00000   0.00125   0.00125  -3.14035
   D26        1.04720  -0.00012   0.00000  -0.00005  -0.00006   1.04714
   D27       -1.04720   0.00687   0.00000   0.00268   0.00268  -1.04452
   D28        1.04720  -0.01227   0.00000  -0.00155  -0.00145   1.04575
   D29       -1.04720   0.11924   0.00000   0.02447   0.02430  -1.02290
   D30        3.14159  -0.08154   0.00000  -0.02944  -0.02972   3.11187
   D31       -1.37125  -0.02707   0.00000   0.00573   0.00608  -1.36516
   D32        3.14159  -0.01010   0.00000  -0.00065  -0.00055   3.14105
   D33        1.04720   0.12141   0.00000   0.02537   0.02520   1.07240
   D34       -1.04720  -0.07937   0.00000  -0.02854  -0.02882  -1.07601
   D35        0.72315  -0.02490   0.00000   0.00663   0.00699   0.73013
   D36       -1.04720  -0.01302   0.00000  -0.00178  -0.00168  -1.04888
   D37        3.14159   0.11849   0.00000   0.02424   0.02406  -3.11753
   D38        1.04720  -0.08229   0.00000  -0.02967  -0.02995   1.01724
   D39        2.81754  -0.02782   0.00000   0.00549   0.00585   2.82339
   D40        3.14159  -0.01090   0.00000  -0.00384  -0.00451   3.13708
   D41       -1.04720  -0.00580   0.00000  -0.00181  -0.00247  -1.04966
   D42        1.04720  -0.00559   0.00000  -0.00173  -0.00239   1.04481
   D43       -1.04720  -0.06229   0.00000  -0.02313  -0.02330  -1.07050
   D44        1.04720  -0.05719   0.00000  -0.02111  -0.02126   1.02594
   D45       -3.14159  -0.05698   0.00000  -0.02102  -0.02118   3.12041
   D46        1.04720   0.12293   0.00000   0.02706   0.02796   1.07515
   D47        3.14159   0.12803   0.00000   0.02909   0.03000  -3.11160
   D48       -1.04720   0.12824   0.00000   0.02917   0.03007  -1.01712
   D49        0.73466  -0.06216   0.00000  -0.00500  -0.00510   0.72956
   D50        2.82905  -0.05706   0.00000  -0.00297  -0.00306   2.82600
   D51       -1.35974  -0.05685   0.00000  -0.00289  -0.00298  -1.36271
   D52       -1.69592   0.01161   0.00000   0.00022   0.00037  -1.69554
   D53        2.14270  -0.01063   0.00000   0.00428   0.00466   2.14736
   D54        0.24970  -0.00911   0.00000  -0.00265  -0.00205   0.24765
   D55       -0.20180  -0.06828   0.00000   0.00119   0.00182  -0.19998
   D56       -2.49858   0.07923   0.00000   0.00322   0.00259  -2.49599
   D57        2.93979  -0.06948   0.00000   0.00070   0.00134   2.94112
   D58        0.64301   0.07802   0.00000   0.00274   0.00210   0.64511
         Item               Value     Threshold  Converged?
 Maximum Force            1.644254     0.000450     NO 
 RMS     Force            0.224905     0.000300     NO 
 Maximum Displacement     0.370227     0.001800     NO 
 RMS     Displacement     0.061539     0.001200     NO 
 Predicted change in Energy=-5.319131D-01
 GradGradGradGradGradGradGradGradGradGradGradGradGradGradGradGradGradGrad

                          Input orientation:                          
 ---------------------------------------------------------------------
 Center     Atomic      Atomic             Coordinates (Angstroms)
 Number     Number       Type             X           Y           Z
 ---------------------------------------------------------------------
      1          6           0       -2.133339   -0.795473    0.112090
      2          1           0       -1.900719   -1.813191    0.358909
      3          1           0       -3.197481   -0.676077    0.051143
      4          6           0       -1.577874    0.135213    1.207406
      5          1           0       -1.812744    1.153018    0.961424
      6          1           0       -2.024235   -0.117747    2.149472
      7          6           0       -0.049521   -0.027247    1.308889
      8          1           0        0.400005    0.226343    0.368186
      9          1           0        0.187535   -1.043471    1.556738
     10          6           0        0.496863    0.905077    2.408310
     11          1           0        0.045565    0.654698    3.364756
     12          1           0        0.200154    1.966558    2.116948
     13          7           0        1.987599    0.669336    2.487811
     14          1           0        2.389593    1.262121    3.192570
     15          1           0        2.169498   -0.290607    2.721044
     16          1           0        2.406803    0.879796    1.602012
     17          6           0       -1.502055   -0.441977   -1.247719
     18          1           0       -0.438036   -0.560831   -1.193008
     19          1           0       -1.893482   -1.092642   -2.005025
     20          1           0       -1.734288    0.575061   -1.497170
     21          8           0        2.548760    3.052354    2.537290
     22          6           0        1.282507    2.966745    2.533090
     23          1           0        0.683728    3.854015    2.564592
     24          8           0        0.691720    1.811500    2.490322
 ---------------------------------------------------------------------
                    Distance matrix (angstroms):
                    1          2          3          4          5
     1  C    0.000000
     2  H    1.072745   0.000000
     3  H    1.072553   1.751953   0.000000
     4  C    1.540920   2.149524   2.149014   0.000000
     5  H    2.149596   3.028062   2.468136   1.073126   0.000000
     6  H    2.149916   2.468989   2.468041   1.072713   1.752435
     7  C    2.522854   2.742078   3.451458   1.540311   2.150050
     8  H    2.743633   3.074592   3.722470   2.150489   2.471217
     9  H    2.744989   2.527463   3.722919   2.151278   3.029864
    10  C    3.883614   4.163824   4.658805   2.517816   2.736648
    11  H    4.174979   4.348979   4.823727   2.749469   3.078578
    12  H    4.134423   4.668069   4.774410   2.709700   2.459440
    13  N    4.977132   5.080766   5.884942   3.825875   4.123883
    14  H    5.846363   5.991157   6.696311   4.577291   4.759155
    15  H    5.057265   4.946171   6.006781   4.063892   4.586782
    16  H    5.063525   5.229937   6.019464   4.072809   4.276632
    17  C    1.540311   2.149514   2.148561   2.523200   2.742417
    18  H    2.152299   2.473114   3.029147   2.746944   3.077122
    19  H    2.151283   2.471321   2.470175   3.453542   3.721468
    20  H    2.151122   3.029270   2.470538   2.744570   2.526831
    21  O    6.527588   6.943827   7.287071   5.225649   5.011342
    22  C    5.628812   6.140666   6.284943   4.237545   3.916672
    23  H    5.963922   6.607695   6.473249   4.559198   4.012220
    24  O    4.520315   4.939843   5.221448   3.099495   3.007237
                    6          7          8          9         10
     6  H    0.000000
     7  C    2.148084   0.000000
     8  H    3.027922   1.072988   0.000000
     9  H    2.469863   1.072536   1.752206   0.000000
    10  C    2.732965   1.541587   2.152247   2.148883   0.000000
    11  H    2.521440   2.168106   3.047712   2.484525   1.086807
    12  H    3.048489   2.165769   2.475168   3.061742   1.140030
    13  N    4.102290   2.454576   2.685053   2.653457   1.511353
    14  H    4.740671   3.340659   3.606722   3.583401   2.079657
    15  H    4.236032   2.643404   2.989027   2.418799   2.079704
    16  H    4.574812   2.634801   2.444702   2.937032   2.073313
    17  C    3.452348   2.969529   2.583725   3.328887   4.379130
    18  H    3.726194   2.587497   1.938887   2.861010   3.999052
    19  H    4.269351   3.939198   3.554143   4.125434   5.402051
    20  H    3.723178   3.327940   2.855934   3.954668   4.509958
    21  O    5.577833   4.212360   4.160349   4.828317   2.972829
    22  C    4.538259   3.498136   3.602141   4.270135   2.209815
    23  H    4.824964   4.144713   4.250260   5.024674   2.958983
    24  O    3.348818   2.307859   2.664823   3.045757   0.930751
                   11         12         13         14         15
    11  H    0.000000
    12  H    1.817112   0.000000
    13  N    2.130902   2.239482   0.000000
    14  H    2.427566   2.539062   1.004828   0.000000
    15  H    2.412272   3.055821   1.004478   1.637604   0.000000
    16  H    2.955229   2.513068   1.002330   1.635953   1.636579
    17  C    4.987259   4.474320   5.231337   6.145327   5.408724
    18  H    4.741793   4.213169   4.576619   5.527381   4.710844
    19  H    5.970566   5.543706   6.192974   7.134749   6.283851
    20  H    5.178083   4.328993   5.453568   6.282683   5.812250
    21  O    3.563627   2.621372   2.448698   1.913023   3.369420
    22  C    2.750864   1.531351   2.403600   2.136890   3.381187
    23  H    3.359039   1.999181   3.442115   3.165793   4.405665
    24  O    1.587558   0.636466   1.727381   1.917744   2.579906
                   16         17         18         19         20
    16  H    0.000000
    17  C    5.014701   0.000000
    18  H    4.240360   1.072034   0.000000
    19  H    5.949259   1.072423   1.749434   0.000000
    20  H    5.181354   1.072626   1.750153   1.750570   0.000000
    21  O    2.369579   6.553301   5.990925   7.585982   6.384226
    22  C    2.546822   5.802386   5.411826   6.867315   5.573526
    23  H    3.569528   6.145480   5.904980   7.210605   5.752934
    24  O    2.144452   4.885055   4.524514   5.943522   4.828498
                   21         22         23         24
    21  O    0.000000
    22  C    1.269151   0.000000
    23  H    2.030209   1.070876   0.000000
    24  O    2.233947   1.298249   2.043881   0.000000
 Stoichiometry    C6H15NO2
 Framework group  C1[X(C6H15NO2)]
 Deg. of freedom    66
 Full point group                 C1      NOp   1
 Largest Abelian subgroup         C1      NOp   1
 Largest concise Abelian subgroup C1      NOp   1
                         Standard orientation:                         
 ---------------------------------------------------------------------
 Center     Atomic      Atomic             Coordinates (Angstroms)
 Number     Number       Type             X           Y           Z
 ---------------------------------------------------------------------
      1          6           0       -3.171840    0.021681   -0.349098
      2          1           0       -3.423375    1.064468   -0.338694
      3          1           0       -3.849490   -0.503684   -0.993420
      4          6           0       -1.733014   -0.151179   -0.872866
      5          1           0       -1.482491   -1.194577   -0.885361
      6          1           0       -1.666241    0.245136   -1.867446
      7          6           0       -0.747633    0.600899    0.041443
      8          1           0       -0.811247    0.205749    1.036990
      9          1           0       -0.994882    1.644473    0.053844
     10          6           0        0.688179    0.424749   -0.491385
     11          1           0        0.760617    0.822357   -1.500250
     12          1           0        0.896610   -0.695891   -0.511146
     13          7           0        1.598267    1.216628    0.419029
     14          1           0        2.550549    1.127356    0.111022
     15          1           0        1.336261    2.186223    0.404365
     16          1           0        1.520707    0.867032    1.355209
     17          6           0       -3.283018   -0.545411    1.078700
     18          1           0       -2.608456   -0.022870    1.727680
     19          1           0       -4.286527   -0.422583    1.436433
     20          1           0       -3.032973   -1.588453    1.070589
     21          8           0        3.254665   -0.574743    0.627488
     22          6           0        2.364311   -0.981362   -0.180394
     23          1           0        2.450217   -1.948183   -0.632780
     24          8           0        1.339203   -0.240159   -0.472319
 ---------------------------------------------------------------------
 Rotational constants (GHZ):      3.9844726      0.6807914      0.6705253
 Standard basis: 6-311+G(d) (5D, 7F)
 There are   243 symmetry adapted basis functions of A   symmetry.
 Integral buffers will be    131072 words long.
 Raffenetti 2 integral format.
 Two-electron integral symmetry is turned on.
   243 basis functions,   399 primitive gaussians,   252 cartesian basis functions
    37 alpha electrons       37 beta electrons
       nuclear repulsion energy       530.0728805765 Hartrees.
 NAtoms=   24 NActive=   24 NUniq=   24 SFac= 7.50D-01 NAtFMM=   80 NAOKFM=F Big=F
 One-electron integrals computed using PRISM.
 NBasis=   243 RedAO= T  NBF=   243
 NBsUse=   243 1.00D-06 NBFU=   243
 Initial guess read from the read-write file.
 B after Tr=     0.000000    0.000000    0.000000
         Rot=    1.000000    0.000000    0.000000    0.000000 Ang=   0.00 deg.
 Initial guess orbital symmetries:
       Occupied  (A) (A) (A) (A) (A) (A) (A) (A) (A) (A) (A) (A)
                 (A) (A) (A) (A) (A) (A) (A) (A) (A) (A) (A) (A)
                 (A) (A) (A) (A) (A) (A) (A) (A) (A) (A) (A) (A)
                 (A)
       Virtual   (A) (A) (A) (A) (A) (A) (A) (A) (A) (A) (A) (A)
                 (A) (A) (A) (A) (A) (A) (A) (A) (A) (A) (A) (A)
                 (A) (A) (A) (A) (A) (A) (A) (A) (A) (A) (A) (A)
                 (A) (A) (A) (A) (A) (A) (A) (A) (A) (A) (A) (A)
                 (A) (A) (A) (A) (A) (A) (A) (A) (A) (A) (A) (A)
                 (A) (A) (A) (A) (A) (A) (A) (A) (A) (A) (A) (A)
                 (A) (A) (A) (A) (A) (A) (A) (A) (A) (A) (A) (A)
                 (A) (A) (A) (A) (A) (A) (A) (A) (A) (A) (A) (A)
                 (A) (A) (A) (A) (A) (A) (A) (A) (A) (A) (A) (A)
                 (A) (A) (A) (A) (A) (A) (A) (A) (A) (A) (A) (A)
                 (A) (A) (A) (A) (A) (A) (A) (A) (A) (A) (A) (A)
                 (A) (A) (A) (A) (A) (A) (A) (A) (A) (A) (A) (A)
                 (A) (A) (A) (A) (A) (A) (A) (A) (A) (A) (A) (A)
                 (A) (A) (A) (A) (A) (A) (A) (A) (A) (A) (A) (A)
                 (A) (A) (A) (A) (A) (A) (A) (A) (A) (A) (A) (A)
                 (A) (A) (A) (A) (A) (A) (A) (A) (A) (A) (A) (A)
                 (A) (A) (A) (A) (A) (A) (A) (A) (A) (A) (A) (A)
                 (A) (A)
 Harris functional with IExCor= 1009 diagonalized for initial guess.
 ExpMin= 4.38D-02 ExpMax= 8.59D+03 ExpMxC= 1.30D+03 IAcc=2 IRadAn=         0 AccDes= 0.00D+00
 HarFok:  IExCor= 1009 AccDes= 0.00D+00 IRadAn=         0 IDoV= 1
 ScaDFX=  1.000000  1.000000  1.000000  1.000000
 FoFCou: FMM=F IPFlag=           0 FMFlag=      100000 FMFlg1=           0
         NFxFlg=           0 DoJE=T BraDBF=F KetDBF=T FulRan=T
         Omega=  0.000000  0.000000  1.000000  0.000000  0.000000 ICntrl=     500 IOpCl=  0
         NMat0=    1 NMatS0=    1 NMatT0=    0 NMatD0=    1 NMtDS0=    0 NMtDT0=    0
         I1Cent=           4 NGrid=           0.
 Petite list used in FoFCou.
 Requested convergence on RMS density matrix=1.00D-08 within 128 cycles.
 Requested convergence on MAX density matrix=1.00D-06.
 Requested convergence on             energy=1.00D-06.
 No special actions if energy rises.
 Restarting incremental Fock formation.
 SCF Done:  E(RM062X) =  -441.536636394     A.U. after   26 cycles
             Convg  =    0.9822D-08             -V/T =  1.9901
 Calling FoFJK, ICntrl=      2127 FMM=F ISym2X=0 I1Cent= 0 IOpClX= 0 NMat=1 NMatS=1 NMatT=0.
 ***** Axes restored to original set *****
 -------------------------------------------------------------------
 Center     Atomic                   Forces (Hartrees/Bohr)
 Number     Number              X              Y              Z
 -------------------------------------------------------------------
      1        6           0.017560908    0.023702156   -0.007252115
      2        1           0.000019404   -0.013933920    0.004711145
      3        1          -0.013517799   -0.001506251    0.000710523
      4        6           0.012222610   -0.023248456   -0.013794317
      5        1          -0.006407561    0.015414077   -0.002645834
      6        1          -0.004870486    0.000472081    0.013676097
      7        6          -0.029048155    0.037483905   -0.006574973
      8        1           0.008661073    0.002995752   -0.013213595
      9        1           0.007669880   -0.011075398    0.010139378
     10        6          -0.128454032   -1.525080107   -0.010123015
     11        1          -0.033411127   -0.072895736    0.050391110
     12        1          -0.939607323    0.433294953   -0.692949634
     13        7           0.092654970   -0.184855403    0.015624617
     14        1           0.016535823    0.018018575    0.009532802
     15        1           0.015956712   -0.019118813    0.004680062
     16        1           0.010163673    0.009457972   -0.009649328
     17        6          -0.013283828   -0.009821200    0.018847037
     18        1           0.011227905   -0.002363274   -0.006194888
     19        1          -0.002348541   -0.005645500   -0.011674973
     20        1          -0.001240045    0.012855360   -0.005734151
     21        8           0.043357548   -0.014488091   -0.007166154
     22        6           0.094269038    0.195947128    0.030902628
     23        1          -0.025888932   -0.011608979    0.003509847
     24        8           0.867778284    1.145999170    0.624247732
 -------------------------------------------------------------------
 Cartesian Forces:  Max     1.525080107 RMS     0.299554912

 GradGradGradGradGradGradGradGradGradGradGradGradGradGradGradGradGradGrad
 Berny optimization.
 Using GEDIIS/GDIIS optimizer.
 Internal  Forces:  Max     1.195492556 RMS     0.149740281
 Search for a local minimum.
 Step number   2 out of a maximum of  136
 All quantities printed in internal units (Hartrees-Bohrs-Radians)
 Mixed Optimization -- RFO/linear search
 Update second derivatives using D2CorX and points    1    2
 DE= -5.18D-01 DEPred=-5.32D-01 R= 9.75D-01
 SS=  1.41D+00  RLast= 3.00D-01 DXNew= 5.0454D-01 8.9974D-01
 Trust test= 9.75D-01 RLast= 3.00D-01 DXMaxT set to 5.05D-01
 Use linear search instead of GDIIS.
 Linear search step of   0.600 exceeds DXMaxT=   0.505 but not scaled.
 Quartic linear search produced a step of  2.00000.
 Iteration  1 RMS(Cart)=  0.12233416 RMS(Int)=  0.00993730
 Iteration  2 RMS(Cart)=  0.00925412 RMS(Int)=  0.00223529
 Iteration  3 RMS(Cart)=  0.00012654 RMS(Int)=  0.00223281
 Iteration  4 RMS(Cart)=  0.00000084 RMS(Int)=  0.00223281
 Variable       Old X    -DE/DX   Delta X   Delta X   Delta X     New X
                                 (Linear)    (Quad)   (Total)
    R1        2.02719   0.01431   0.01037   0.00000   0.01037   2.03757
    R2        2.02683   0.01320   0.00965   0.00000   0.00965   2.03648
    R3        2.91192   0.00329   0.00348   0.00000   0.00348   2.91539
    R4        2.91077   0.00076   0.00118   0.00000   0.00118   2.91194
    R5        2.02791   0.01664   0.01181   0.00000   0.01181   2.03973
    R6        2.02713   0.01392   0.01025   0.00000   0.01025   2.03739
    R7        2.91077   0.00078   0.00117   0.00000   0.00117   2.91194
    R8        2.02765   0.01592   0.01129   0.00000   0.01129   2.03895
    R9        2.02680   0.01453   0.00959   0.00000   0.00959   2.03639
   R10        2.91318   0.00298   0.00600   0.00000   0.00600   2.91918
   R11        2.05377   0.07502   0.06352   0.00000   0.06352   2.11729
   R12        2.15435   0.75588   0.26468   0.00000   0.25850   2.41284
   R13        2.85604   0.16203   0.15629   0.00000   0.15629   3.01233
   R14        1.75887   1.19549   0.21422   0.00000   0.21832   1.97718
   R15        1.20275   0.63352   0.28131   0.00000   0.28589   1.48863
   R16        1.89885   0.02394   0.01825   0.00000   0.01825   1.91710
   R17        1.89819   0.02225   0.01693   0.00000   0.01693   1.91511
   R18        1.89413   0.01475   0.00881   0.00000   0.00881   1.90293
   R19        2.02585   0.01110   0.00769   0.00000   0.00769   2.03354
   R20        2.02659   0.01253   0.00916   0.00000   0.00916   2.03574
   R21        2.02697   0.01378   0.00992   0.00000   0.00992   2.03689
   R22        2.39835   0.04226   0.04063   0.00000   0.04063   2.43898
   R23        2.02366   0.00496   0.00331   0.00000   0.00331   2.02697
   R24        2.45333   0.20289   0.15061   0.00000   0.15061   2.60394
    A1        1.91116   0.00136   0.00105   0.00000   0.00101   1.91216
    A2        1.90846  -0.00529  -0.00434   0.00000  -0.00437   1.90410
    A3        1.90919  -0.00357  -0.00289   0.00000  -0.00290   1.90629
    A4        1.90795  -0.00645  -0.00536   0.00000  -0.00535   1.90261
    A5        1.90807  -0.00578  -0.00513   0.00000  -0.00511   1.90296
    A6        1.91896   0.01970   0.01666   0.00000   0.01667   1.93563
    A7        1.90817  -0.00576  -0.00492   0.00000  -0.00494   1.90324
    A8        1.90903  -0.00335  -0.00320   0.00000  -0.00317   1.90586
    A9        1.91857   0.01776   0.01587   0.00000   0.01589   1.93446
   A10        1.91122   0.00126   0.00118   0.00000   0.00114   1.91236
   A11        1.90954  -0.00241  -0.00218   0.00000  -0.00219   1.90735
   A12        1.90725  -0.00752  -0.00677   0.00000  -0.00677   1.90048
   A13        1.91029  -0.00112  -0.00069   0.00000  -0.00070   1.90959
   A14        1.91184   0.00264   0.00241   0.00000   0.00242   1.91425
   A15        1.91227   0.00489   0.00328   0.00000   0.00328   1.91555
   A16        1.91127   0.00171   0.00127   0.00000   0.00126   1.91253
   A17        1.91116   0.00058   0.00105   0.00000   0.00105   1.91220
   A18        1.90698  -0.00871  -0.00731   0.00000  -0.00731   1.89967
   A19        1.91891   0.00318   0.01655   0.00000   0.01510   1.93401
   A20        1.86356  -0.11424  -0.09415   0.00000  -0.08396   1.77960
   A21        1.86792  -0.04217  -0.08542   0.00000  -0.08269   1.78523
   A22        2.38331  -0.00281  -0.02337   0.00000  -0.02261   2.36070
   A23        1.90853   0.00131  -0.00421   0.00000  -0.00999   1.89854
   A24        1.90430  -0.01834  -0.01266   0.00000  -0.01793   1.88638
   A25        1.80673   0.00116  -0.00337   0.00000  -0.00341   1.80332
   A26        1.99917   0.16438   0.17707   0.00000   0.16874   2.16791
   A27        1.51153   0.05823   0.11750   0.00000   0.11844   1.62997
   A28        1.91716   0.00441   0.01306   0.00000   0.01296   1.93012
   A29        1.91760   0.01642   0.01394   0.00000   0.01383   1.93144
   A30        1.91058  -0.00047  -0.00010   0.00000  -0.00010   1.91049
   A31        1.90549  -0.00720  -0.01028   0.00000  -0.01048   1.89501
   A32        1.90566  -0.00755  -0.00994   0.00000  -0.00993   1.89574
   A33        1.90723  -0.00582  -0.00681   0.00000  -0.00682   1.90041
   A34        1.91376   0.00747   0.00625   0.00000   0.00624   1.92000
   A35        1.91196   0.00349   0.00265   0.00000   0.00264   1.91460
   A36        1.91153   0.00250   0.00179   0.00000   0.00178   1.91331
   A37        1.90820  -0.00602  -0.00487   0.00000  -0.00488   1.90332
   A38        1.90909  -0.00393  -0.00308   0.00000  -0.00310   1.90600
   A39        1.90925  -0.00356  -0.00276   0.00000  -0.00276   1.90649
   A40        2.09657   0.03290   0.00436   0.00000   0.00436   2.10093
   A41        2.11082  -0.00940   0.03285   0.00000   0.03285   2.14367
   A42        2.07579  -0.02350  -0.03721   0.00000  -0.03721   2.03858
   A43        2.87534   0.26504   0.09228   0.00000   0.08762   2.96295
   A44        1.72541   0.42914   0.02291   0.00000   0.01746   1.74288
    D1       -3.13927   0.00541   0.00465   0.00000   0.00463  -3.13464
[...]
    15  H    3.198286   4.886759   1.014239   1.632785   0.000000
    16  H    2.871430   4.225027   1.016065   1.624129   1.636323
    17  C    5.113140   4.738999   7.006116   7.897314   7.299721
    18  H    4.998348   4.631479   6.640306   7.476674   7.011484
    19  H    6.108896   5.822633   7.880001   8.795534   8.095739
    20  H    5.320024   4.592388   7.473378   8.318955   7.854875
    21  O    3.661024   3.850758   3.147948   2.833830   4.150139
    22  C    2.539143   2.706064   2.777524   2.803775   3.770879
    23  H    2.319191   2.519609   2.931309   2.958874   3.816342
    24  O    2.060417   2.071671   3.003743   3.411716   3.899365
                   16         17         18         19         20
    16  H    0.000000
    17  C    6.534765   0.000000
    18  H    6.045658   1.092006   0.000000
    19  H    7.374317   1.091787   1.759282   0.000000
    20  H    7.067365   1.094005   1.764620   1.764642   0.000000
    21  O    3.046777   7.520093   6.931874   8.528991   7.664807
    22  C    2.785276   6.627526   6.159105   7.665673   6.735657
    23  H    3.278272   6.928809   6.620107   7.987734   6.962951
    24  O    2.701945   5.330214   4.826651   6.357533   5.486168
                   21         22         23         24
    21  O    0.000000
    22  C    1.193521   0.000000
    23  H    2.022901   1.101700   0.000000
    24  O    2.221229   1.336239   2.045414   0.000000
 Stoichiometry    C6H15NO2
 Framework group  C1[X(C6H15NO2)]
 Deg. of freedom    66
 Full point group                 C1      NOp   1
 Largest Abelian subgroup         C1      NOp   1
 Largest concise Abelian subgroup C1      NOp   1
                         Standard orientation:                         
 ---------------------------------------------------------------------
 Center     Atomic      Atomic             Coordinates (Angstroms)
 Number     Number       Type             X           Y           Z
 ---------------------------------------------------------------------
      1          6           0        3.358823    0.637051    0.015899
      2          1           0        3.161321    1.437356   -0.705951
      3          1           0        4.105823    1.030561    0.711911
      4          6           0        2.076397    0.331342    0.791825
      5          1           0        2.288010   -0.429041    1.553671
      6          1           0        1.764607    1.231274    1.334317
      7          6           0        0.927647   -0.146806   -0.094788
      8          1           0        1.163444   -1.110655   -0.554012
      9          1           0        0.762292    0.564204   -0.911904
     10          6           0       -0.356594   -0.288121    0.693764
     11          1           0       -0.686567    0.677759    1.087519
     12          1           0       -0.226628   -0.992953    1.522672
     13          7           0       -2.584849    1.959596   -0.294106
     14          1           0       -3.587393    1.803377   -0.322375
     15          1           0       -2.438191    2.963121   -0.304590
     16          1           0       -2.215771    1.589396   -1.165382
     17          6           0        3.932486   -0.577445   -0.710539
     18          1           0        3.273044   -0.921390   -1.510111
     19          1           0        4.899506   -0.347965   -1.162434
     20          1           0        4.078871   -1.412426   -0.019000
     21          8           0       -3.567258   -1.029518   -0.392319
     22          6           0       -2.618307   -0.758016    0.278704
     23          1           0       -2.684967   -0.471622    1.340438
     24          8           0       -1.368513   -0.785007   -0.193334
 ---------------------------------------------------------------------
 Rotational constants (GHZ):      3.0502153      0.5290219      0.4869167

 **********************************************************************

            Population analysis using the SCF density.

 **********************************************************************

 Orbital symmetries:
       Occupied  (A) (A) (A) (A) (A) (A) (A) (A) (A) (A) (A) (A)
                 (A) (A) (A) (A) (A) (A) (A) (A) (A) (A) (A) (A)
                 (A) (A) (A) (A) (A) (A) (A) (A) (A) (A) (A) (A)
                 (A)
       Virtual   (A) (A) (A) (A) (A) (A) (A) (A) (A) (A) (A) (A)
                 (A) (A) (A) (A) (A) (A) (A) (A) (A) (A) (A) (A)
                 (A) (A) (A) (A) (A) (A) (A) (A) (A) (A) (A) (A)
                 (A) (A) (A) (A) (A) (A) (A) (A) (A) (A) (A) (A)
                 (A) (A) (A) (A) (A) (A) (A) (A) (A) (A) (A) (A)
                 (A) (A) (A) (A) (A) (A) (A) (A) (A) (A) (A) (A)
                 (A) (A) (A) (A) (A) (A) (A) (A) (A) (A) (A) (A)
                 (A) (A) (A) (A) (A) (A) (A) (A) (A) (A) (A) (A)
                 (A) (A) (A) (A) (A) (A) (A) (A) (A) (A) (A) (A)
                 (A) (A) (A) (A) (A) (A) (A) (A) (A) (A) (A) (A)
                 (A) (A) (A) (A) (A) (A) (A) (A) (A) (A) (A) (A)
                 (A) (A) (A) (A) (A) (A) (A) (A) (A) (A) (A) (A)
                 (A) (A) (A) (A) (A) (A) (A) (A) (A) (A) (A) (A)
                 (A) (A) (A) (A) (A) (A) (A) (A) (A) (A) (A) (A)
                 (A) (A) (A) (A) (A) (A) (A) (A) (A) (A) (A) (A)
                 (A) (A) (A) (A) (A) (A) (A) (A) (A) (A) (A) (A)
                 (A) (A) (A) (A) (A) (A) (A) (A) (A) (A) (A) (A)
                 (A) (A)
 The electronic state is 1-A.
 Alpha  occ. eigenvalues --  -19.66479 -19.61149 -14.73257 -10.66771 -10.59769
 Alpha  occ. eigenvalues --  -10.54173 -10.54104 -10.53777 -10.52689  -1.23231
 Alpha  occ. eigenvalues --   -1.14903  -0.96771  -0.91926  -0.86223  -0.78532
 Alpha  occ. eigenvalues --   -0.71731  -0.70084  -0.65759  -0.61042  -0.58530
 Alpha  occ. eigenvalues --   -0.55150  -0.54817  -0.54156  -0.53203  -0.52058
 Alpha  occ. eigenvalues --   -0.49729  -0.47241  -0.46015  -0.45387  -0.42702
 Alpha  occ. eigenvalues --   -0.42371  -0.39506  -0.39420  -0.39279  -0.36728
 Alpha  occ. eigenvalues --   -0.35543  -0.34566
 Alpha virt. eigenvalues --    0.00931   0.02010   0.02088   0.02576   0.04023
 Alpha virt. eigenvalues --    0.04115   0.04792   0.05809   0.06238   0.06431
 Alpha virt. eigenvalues --    0.06936   0.07752   0.08101   0.09075   0.09510
 Alpha virt. eigenvalues --    0.10159   0.11559   0.12067   0.12493   0.12790
 Alpha virt. eigenvalues --    0.13445   0.14599   0.15120   0.16020   0.16879
 Alpha virt. eigenvalues --    0.17721   0.18445   0.18791   0.19393   0.20015
 Alpha virt. eigenvalues --    0.21129   0.21690   0.21876   0.22879   0.23134
 Alpha virt. eigenvalues --    0.24155   0.25335   0.25421   0.26174   0.26806
 Alpha virt. eigenvalues --    0.27261   0.28448   0.28902   0.29090   0.29947
 Alpha virt. eigenvalues --    0.30889   0.31224   0.31809   0.32512   0.32739
 Alpha virt. eigenvalues --    0.33354   0.33932   0.35478   0.36193   0.38328
 Alpha virt. eigenvalues --    0.38805   0.41614   0.42581   0.44381   0.45756
 Alpha virt. eigenvalues --    0.47010   0.47648   0.49072   0.51632   0.52255
 Alpha virt. eigenvalues --    0.53898   0.55648   0.56681   0.57601   0.60261
 Alpha virt. eigenvalues --    0.62113   0.63548   0.64930   0.66410   0.66756
 Alpha virt. eigenvalues --    0.67953   0.68602   0.69756   0.70435   0.71281
 Alpha virt. eigenvalues --    0.72108   0.73595   0.74616   0.74874   0.75845
 Alpha virt. eigenvalues --    0.77209   0.77947   0.78810   0.80365   0.81398
 Alpha virt. eigenvalues --    0.82174   0.84371   0.86171   0.89277   0.91608
 Alpha virt. eigenvalues --    0.95909   0.98659   1.04628   1.05280   1.08317
 Alpha virt. eigenvalues --    1.11630   1.13168   1.15643   1.18741   1.20154
 Alpha virt. eigenvalues --    1.21110   1.22860   1.24801   1.25941   1.30862
 Alpha virt. eigenvalues --    1.34822   1.40220   1.42673   1.44725   1.48587
 Alpha virt. eigenvalues --    1.53692   1.56571   1.57805   1.59857   1.61226
 Alpha virt. eigenvalues --    1.62550   1.63990   1.67100   1.67801   1.69030
 Alpha virt. eigenvalues --    1.72294   1.73351   1.77597   1.79437   1.82435
 Alpha virt. eigenvalues --    1.85852   1.88537   1.90566   1.91499   1.95161
 Alpha virt. eigenvalues --    1.97560   2.01119   2.03065   2.05704   2.06380
 Alpha virt. eigenvalues --    2.09837   2.10710   2.13484   2.22032   2.27903
 Alpha virt. eigenvalues --    2.47944   2.51044   2.52350   2.53281   2.56163
 Alpha virt. eigenvalues --    2.57841   2.59042   2.60357   2.61557   2.63743
 Alpha virt. eigenvalues --    2.64972   2.67037   2.71843   2.74117   2.91108
 Alpha virt. eigenvalues --    2.92343   2.92725   2.94216   2.97927   3.00087
 Alpha virt. eigenvalues --    3.03933   3.05415   3.06094   3.09085   3.11849
 Alpha virt. eigenvalues --    3.20238   3.21356   3.24507   3.26390   3.29047
 Alpha virt. eigenvalues --    3.30760   3.32958   3.38467   3.40436   3.44768
 Alpha virt. eigenvalues --    3.58600   3.65690   3.80768   3.85842   3.97126
 Alpha virt. eigenvalues --    4.02653   4.07684   4.11168   4.12756   4.17777
 Alpha virt. eigenvalues --    4.21532   5.14629   5.17483   5.24416   5.43849
 Alpha virt. eigenvalues --    5.63335   5.95867  23.52616  23.64216  23.76070
 Alpha virt. eigenvalues --   23.80133  23.83346  23.89943  35.42448  50.00432
 Alpha virt. eigenvalues --   50.09238
          Condensed to atoms (all electrons):
              1          2          3          4          5          6
     1  C    6.399344   0.444644   0.420639  -0.377772   0.005567  -0.028612
     2  H    0.444644   0.441936  -0.034243   0.028489   0.004573  -0.006677
     3  H    0.420639  -0.034243   0.457769  -0.115278  -0.006223  -0.004976
     4  C   -0.377772   0.028489  -0.115278   6.802271   0.456774   0.344431
     5  H    0.005567   0.004573  -0.006223   0.456774   0.437209  -0.036512
     6  H   -0.028612  -0.006677  -0.004976   0.344431  -0.036512   0.463380
     7  C    0.138459  -0.047289   0.044920  -0.844472  -0.050057  -0.013210
     8  H   -0.008169   0.000247  -0.000446  -0.068015  -0.006355   0.005239
     9  H    0.027138   0.001446  -0.000046  -0.061087   0.005060  -0.006263
    10  C   -0.344879  -0.003926   0.004724   0.404127  -0.047263   0.006809
    11  H    0.001214   0.000096  -0.000062  -0.005414   0.000114   0.002032
    12  H    0.003244  -0.000045   0.000031  -0.025934   0.003110  -0.001231
    13  N   -0.004158   0.000050   0.000006  -0.025941   0.000110  -0.000440
    14  H   -0.000013   0.000000   0.000000   0.000502   0.000000  -0.000004
    15  H    0.000302  -0.000001   0.000000   0.000450   0.000000   0.000002
    16  H    0.000047  -0.000004   0.000000   0.001382  -0.000005   0.000072
    17  C   -0.135669  -0.080107  -0.017139  -0.046870  -0.033896   0.020783
    18  H    0.004056  -0.007153   0.005299  -0.058819   0.000253  -0.000372
    19  H   -0.109181  -0.002465  -0.004353   0.053791  -0.000455  -0.000100
    20  H   -0.012082   0.005014  -0.006053  -0.007265   0.002423   0.000084
    21  O   -0.000085   0.000000   0.000000  -0.003207  -0.000010   0.000014
    22  C   -0.011541   0.000160   0.000039  -0.029376   0.000449  -0.000135
    23  H    0.000332   0.000000   0.000000   0.000014   0.000008  -0.000001
    24  O   -0.013600  -0.000052   0.000123   0.051416  -0.000462  -0.001207
              7          8          9         10         11         12
     1  C    0.138459  -0.008169   0.027138  -0.344879   0.001214   0.003244
     2  H   -0.047289   0.000247   0.001446  -0.003926   0.000096  -0.000045
     3  H    0.044920  -0.000446  -0.000046   0.004724  -0.000062   0.000031
     4  C   -0.844472  -0.068015  -0.061087   0.404127  -0.005414  -0.025934
     5  H   -0.050057  -0.006355   0.005060  -0.047263   0.000114   0.003110
     6  H   -0.013210   0.005239  -0.006263   0.006809   0.002032  -0.001231
     7  C    7.234061   0.438606   0.476924  -1.016942  -0.046438   0.064350
     8  H    0.438606   0.435727  -0.038545  -0.022666   0.005492  -0.009439
     9  H    0.476924  -0.038545   0.443982  -0.111700  -0.010040   0.006835
    10  C   -1.016942  -0.022666  -0.111700   7.249328   0.420947   0.283732
    11  H   -0.046438   0.005492  -0.010040   0.420947   0.436079  -0.047237
    12  H    0.064350  -0.009439   0.006835   0.283732  -0.047237   0.488541
    13  N    0.012470  -0.000726   0.001411   0.018937  -0.035560   0.001835
    14  H   -0.005533  -0.000005  -0.000020   0.011297   0.000313  -0.000047
    15  H    0.002851   0.000013  -0.000053  -0.005368   0.000995  -0.000033
    16  H    0.003745   0.000100   0.000106  -0.009496   0.000248  -0.000049
    17  C    0.108958   0.008893  -0.010291   0.042832  -0.000816   0.000213
    18  H    0.019171  -0.003359   0.000274  -0.003237  -0.000029   0.000093
    19  H    0.002323   0.000532  -0.000224   0.003794   0.000002  -0.000005
    20  H   -0.007605  -0.000148   0.000115  -0.006626   0.000012  -0.000037
    21  O    0.008741   0.000118  -0.000609   0.005514   0.002314  -0.002048
    22  C   -0.012431  -0.001053   0.004331  -0.102066  -0.005443   0.008580
    23  H   -0.012575   0.000038  -0.000003   0.060606   0.001639   0.002278
    24  O   -0.147526  -0.002917   0.007737   0.048038  -0.044141  -0.034140
             13         14         15         16         17         18
     1  C   -0.004158  -0.000013   0.000302   0.000047  -0.135669   0.004056
     2  H    0.000050   0.000000  -0.000001  -0.000004  -0.080107  -0.007153
     3  H    0.000006   0.000000   0.000000   0.000000  -0.017139   0.005299
     4  C   -0.025941   0.000502   0.000450   0.001382  -0.046870  -0.058819
     5  H    0.000110   0.000000   0.000000  -0.000005  -0.033896   0.000253
     6  H   -0.000440  -0.000004   0.000002   0.000072   0.020783  -0.000372
     7  C    0.012470  -0.005533   0.002851   0.003745   0.108958   0.019171
     8  H   -0.000726  -0.000005   0.000013   0.000100   0.008893  -0.003359
     9  H    0.001411  -0.000020  -0.000053   0.000106  -0.010291   0.000274
    10  C    0.018937   0.011297  -0.005368  -0.009496   0.042832  -0.003237
    11  H   -0.035560   0.000313   0.000995   0.000248  -0.000816  -0.000029
    12  H    0.001835  -0.000047  -0.000033  -0.000049   0.000213   0.000093
    13  N    7.195927   0.325354   0.293322   0.352068   0.000335   0.000004
    14  H    0.325354   0.357407  -0.018953  -0.037483  -0.000002   0.000000
    15  H    0.293322  -0.018953   0.352515  -0.022223  -0.000013   0.000000
    16  H    0.352068  -0.037483  -0.022223   0.342503  -0.000010   0.000000
    17  C    0.000335  -0.000002  -0.000013  -0.000010   5.871148   0.390199
    18  H    0.000004   0.000000   0.000000   0.000000   0.390199   0.457132
    19  H   -0.000001   0.000000   0.000000   0.000000   0.405278  -0.028084
    20  H    0.000001   0.000000   0.000000   0.000000   0.385060  -0.034045
    21  O    0.000812   0.002691   0.000180  -0.000230   0.000076   0.000001
    22  C   -0.022119  -0.001985   0.011127  -0.004825   0.000844  -0.000182
    23  H   -0.005257  -0.001682   0.000091   0.000863  -0.000013   0.000000
    24  O   -0.010740   0.001076   0.000596  -0.002060  -0.000603   0.000187
             19         20         21         22         23         24
     1  C   -0.109181  -0.012082  -0.000085  -0.011541   0.000332  -0.013600
     2  H   -0.002465   0.005014   0.000000   0.000160   0.000000  -0.000052
     3  H   -0.004353  -0.006053   0.000000   0.000039   0.000000   0.000123
     4  C    0.053791  -0.007265  -0.003207  -0.029376   0.000014   0.051416
     5  H   -0.000455   0.002423  -0.000010   0.000449   0.000008  -0.000462
     6  H   -0.000100   0.000084   0.000014  -0.000135  -0.000001  -0.001207
     7  C    0.002323  -0.007605   0.008741  -0.012431  -0.012575  -0.147526
     8  H    0.000532  -0.000148   0.000118  -0.001053   0.000038  -0.002917
     9  H   -0.000224   0.000115  -0.000609   0.004331  -0.000003   0.007737
    10  C    0.003794  -0.006626   0.005514  -0.102066   0.060606   0.048038
    11  H    0.000002   0.000012   0.002314  -0.005443   0.001639  -0.044141
    12  H   -0.000005  -0.000037  -0.002048   0.008580   0.002278  -0.034140
    13  N   -0.000001   0.000001   0.000812  -0.022119  -0.005257  -0.010740
    14  H    0.000000   0.000000   0.002691  -0.001985  -0.001682   0.001076
    15  H    0.000000   0.000000   0.000180   0.011127   0.000091   0.000596
    16  H    0.000000   0.000000  -0.000230  -0.004825   0.000863  -0.002060
    17  C    0.405278   0.385060   0.000076   0.000844  -0.000013  -0.000603
    18  H   -0.028084  -0.034045   0.000001  -0.000182   0.000000   0.000187
    19  H    0.443390  -0.026130   0.000000   0.000001   0.000000  -0.000002
    20  H   -0.026130   0.451945   0.000000   0.000057   0.000000  -0.000015
    21  O    0.000000   0.000000   8.007038   0.445828  -0.062216  -0.071449
    22  C    0.000001   0.000057   0.445828   5.077670   0.395166   0.082884
    23  H    0.000000   0.000000  -0.062216   0.395166   0.556919  -0.141545
    24  O   -0.000002  -0.000015  -0.071449   0.082884  -0.141545   8.242804
 Mulliken atomic charges:
              1
     1  C   -0.399224
     2  H    0.255309
     3  H    0.255268
     4  C   -0.474198
     5  H    0.265590
     6  H    0.256895
     7  C   -0.351500
     8  H    0.266838
     9  H    0.263523
    10  C   -0.886517
    11  H    0.323684
    12  H    0.257404
    13  N   -1.097698
    14  H    0.367088
    15  H    0.384201
    16  H    0.375252
    17  C   -0.909191
    18  H    0.258610
    19  H    0.261887
    20  H    0.255293
    21  O   -0.333474
    22  C    0.164021
    23  H    0.205339
    24  O    0.035597
 Sum of Mulliken atomic charges =   0.00000
 Mulliken charges with hydrogens summed into heavy atoms:
              1
     1  C    0.111353
     4  C    0.048286
     7  C    0.178861
    10  C   -0.305428
    13  N    0.028844
    17  C   -0.133400
    21  O   -0.333474
    22  C    0.369360
    24  O    0.035597
 Sum of Mulliken charges with hydrogens summed into heavy atoms =   0.00000
 Electronic spatial extent (au):  <R**2>=           2351.7797
 Charge=              0.0000 electrons
 Dipole moment (field-independent basis, Debye):
    X=              2.6308    Y=              2.5592    Z=              1.4552  Tot=              3.9482
 Quadrupole moment (field-independent basis, Debye-Ang):
   XX=            -66.6716   YY=            -55.7506   ZZ=            -57.5558
   XY=             -8.8606   XZ=             -3.3805   YZ=             -4.7177
 Traceless Quadrupole moment (field-independent basis, Debye-Ang):
   XX=             -6.6789   YY=              4.2420   ZZ=              2.4369
   XY=             -8.8606   XZ=             -3.3805   YZ=             -4.7177
 Octapole moment (field-independent basis, Debye-Ang**2):
  XXX=             19.2907  YYY=             15.9818  ZZZ=             -1.6286  XYY=            -14.2717
  XXY=             34.6201  XXZ=             11.5892  XZZ=             -8.4545  YZZ=             -0.3331
  YYZ=             -1.2989  XYZ=              9.3757
 Hexadecapole moment (field-independent basis, Debye-Ang**3):
 XXXX=          -2665.6613 YYYY=           -344.2918 ZZZZ=           -201.8116 XXXY=           -122.5092
 XXXZ=            -32.8619 YYYX=            -42.2488 YYYZ=            -10.4554 ZZZX=              4.0243
 ZZZY=             -4.7797 XXYY=           -478.6932 XXZZ=           -454.3773 YYZZ=           -100.3925
 XXYZ=            -28.6636 YYXZ=              5.0752 ZZXY=              2.0240
 N-N= 4.651681741703D+02 E-N=-1.963858496199D+03  KE= 4.412186301646D+02


 YOU WILL NEVER "FIND" TIME FOR ANYTHING.
 IF YOU WANT TIME, YOU MUST MAKE IT.

                        -- CHARLES BIXTON
 Error termination request processed by link 9999.
 Error termination via Lnk1e in /gscratch/pfaendtner/codes/G09/g09/l9999.exe at Thu Mar  9 23:42:35 2017.
 Job cpu time:  0 days 13 hours 27 minutes 58.5 seconds.
 File lengths (MBytes):  RWF=    192 Int=      0 D2E=      0 Chk=      8 Scr=      4
