 Entering Gaussian System, Link 0=g09
 Input=CH2_M062X_6Gdp.com
 Output=CH2_M062X_6Gdp.log
 Initial command:
 /sw/contrib/gaussian/g09/E01/g09/l1.exe "/scr/Gau-1153.inp" -scrdir="/scr/"
 Entering Link 1 = /sw/contrib/gaussian/g09/E01/g09/l1.exe PID=      1154.
  
 Copyright (c) 1988,1990,1992,1993,1995,1998,2003,2009,2015,
            Gaussian, Inc.  All Rights Reserved.
  
 This is part of the Gaussian(R) 09 program.  It is based on
 the Gaussian(R) 03 system (copyright 2003, Gaussian, Inc.),
 the Gaussian(R) 98 system (copyright 1998, Gaussian, Inc.),
 the Gaussian(R) 94 system (copyright 1995, Gaussian, Inc.),
 the Gaussian 92(TM) system (copyright 1992, Gaussian, Inc.),
 the Gaussian 90(TM) system (copyright 1990, Gaussian, Inc.),
 the Gaussian 88(TM) system (copyright 1988, Gaussian, Inc.),
 the Gaussian 86(TM) system (copyright 1986, Carnegie Mellon
 University), and the Gaussian 82(TM) system (copyright 1983,
 Carnegie Mellon University). Gaussian is a federally registered
 trademark of Gaussian, Inc.
  
 This software contains proprietary and confidential information,
 including trade secrets, belonging to Gaussian, Inc.
  
 This software is provided under written license and may be
 used, copied, transmitted, or stored only in accord with that
 written license.
  
 The following legend is applicable only to US Government
 contracts under FAR:
  
                    RESTRICTED RIGHTS LEGEND
  
 Use, reproduction and disclosure by the US Government is
 subject to restrictions as set forth in subparagraphs (a)
 and (c) of the Commercial Computer Software - Restricted
 Rights clause in FAR 52.227-19.
  
 Gaussian, Inc.
 340 Quinnipiac St., Bldg. 40, Wallingford CT 06492
  
  
 ---------------------------------------------------------------
 Warning -- This program may not be used in any manner that
 competes with the business of Gaussian, Inc. or will provide
 assistance to any competitor of Gaussian, Inc.  The licensee
 of this program is prohibited from giving any competitor of
 Gaussian, Inc. access to this program.  By using this program,
 the user acknowledges that Gaussian, Inc. is engaged in the
 business of creating and licensing software in the field of
 computational chemistry and represents and warrants to the
 licensee that it is not a competitor of Gaussian, Inc. and that
 it will not use this program in any manner prohibited above.
 ---------------------------------------------------------------
  

 Cite this work as:
 Gaussian 09, Revision E.01,
 M. J. Frisch, G. W. Trucks, H. B. Schlegel, G. E. Scuseria, 
 M. A. Robb, J. R. Cheeseman, G. Scalmani, V. Barone, B. Mennucci, 
 G. A. Petersson, H. Nakatsuji, M. Caricato, X. Li, H. P. Hratchian, 
 A. F. Izmaylov, J. Bloino, G. Zheng, J. L. Sonnenberg, M. Hada, 
 M. Ehara, K. Toyota, R. Fukuda, J. Hasegawa, M. Ishida, T. Nakajima, 
 Y. Honda, O. Kitao, H. Nakai, T. Vreven, J. A. Montgomery, Jr., 
 J. E. Peralta, F. Ogliaro, M. Bearpark, J. J. Heyd, E. Brothers, 
 K. N. Kudin, V. N. Staroverov, T. Keith, R. Kobayashi, J. Normand, 
 K. Raghavachari, A. Rendell, J. C. Burant, S. S. Iyengar, J. Tomasi, 
 M. Cossi, N. Rega, J. M. Millam, M. Klene, J. E. Knox, J. B. Cross, 
 V. Bakken, C. Adamo, J. Jaramillo, R. Gomperts, R. E. Stratmann, 
 O. Yazyev, A. J. Austin, R. Cammi, C. Pomelli, J. W. Ochterski, 
 R. L. Martin, K. Morokuma, V. G. Zakrzewski, G. A. Voth, 
 P. Salvador, J. J. Dannenberg, S. Dapprich, A. D. Daniels, 
 O. Farkas, J. B. Foresman, J. V. Ortiz, J. Cioslowski, 
 and D. J. Fox, Gaussian, Inc., Wallingford CT, 2013.
 
 ******************************************
 Gaussian 09:  ES64L-G09RevE.01 30-Nov-2015
                24-Feb-2017 
 ******************************************
 %NProcShared=8
 Will use up to    8 processors via shared memory.
 -----------------------
 #n M062X/6-31G(d,p) Opt
 -----------------------
 1/14=-1,18=20,19=15,26=3,38=1/1,3;
 2/9=110,12=2,17=6,18=5,40=1/2;
 3/5=1,6=6,7=101,11=2,16=1,25=1,30=1,71=1,74=-55/1,2,3;
 4//1;
 5/5=2,38=5/2;
 6/7=2,8=2,9=2,10=2,28=1/1;
 7//1,2,3,16;
 1/14=-1,18=20,19=15,26=3/3(2);
 2/9=110/2;
 99//99;
 2/9=110/2;
 3/5=1,6=6,7=101,11=2,16=1,25=1,30=1,71=1,74=-55/1,2,3;
 4/5=5,16=3,69=1/1;
 5/5=2,38=5/2;
 7//1,2,3,16;
 1/14=-1,18=20,19=15,26=3/3(-5);
 2/9=110/2;
 6/7=2,8=2,9=2,10=2,19=2,28=1/1;
 99/9=1/99;
 -----
 Title
 -----
 Symbolic Z-matrix:
 Charge =  0 Multiplicity = 1
 C                    -0.74586  -1.17255   1.55783 
 C                     0.44906  -0.84175   1.09189 
 H                    -0.85261  -1.84945   2.40196 
 H                    -1.65368  -0.77653   1.10932 
 H                     1.35689  -1.23777   1.54039 
 H                     0.55581  -0.16485   0.24776 
 

 GradGradGradGradGradGradGradGradGradGradGradGradGradGradGradGradGradGrad
 Berny optimization.
 Initialization pass.
                           ----------------------------
                           !    Initial Parameters    !
                           ! (Angstroms and Degrees)  !
 --------------------------                            --------------------------
 ! Name  Definition              Value          Derivative Info.                !
 --------------------------------------------------------------------------------
 ! R1    R(1,2)                  1.3245         estimate D2E/DX2                !
 ! R2    R(1,3)                  1.0873         estimate D2E/DX2                !
 ! R3    R(1,4)                  1.0873         estimate D2E/DX2                !
 ! R4    R(2,5)                  1.0873         estimate D2E/DX2                !
 ! R5    R(2,6)                  1.0873         estimate D2E/DX2                !
 ! A1    A(2,1,3)              121.1431         estimate D2E/DX2                !
 ! A2    A(2,1,4)              121.1433         estimate D2E/DX2                !
 ! A3    A(3,1,4)              117.7137         estimate D2E/DX2                !
 ! A4    A(1,2,5)              121.1439         estimate D2E/DX2                !
 ! A5    A(1,2,6)              121.1431         estimate D2E/DX2                !
 ! A6    A(5,2,6)              117.713          estimate D2E/DX2                !
 ! D1    D(3,1,2,5)              0.0002         estimate D2E/DX2                !
 ! D2    D(3,1,2,6)            180.0            estimate D2E/DX2                !
 ! D3    D(4,1,2,5)           -179.9996         estimate D2E/DX2                !
 ! D4    D(4,1,2,6)              0.0002         estimate D2E/DX2                !
 --------------------------------------------------------------------------------
 Trust Radius=3.00D-01 FncErr=1.00D-07 GrdErr=1.00D-06
 Number of steps in this run=     25 maximum allowed number of steps=    100.
 GradGradGradGradGradGradGradGradGradGradGradGradGradGradGradGradGradGrad

                          Input orientation:                          
 ---------------------------------------------------------------------
 Center     Atomic      Atomic             Coordinates (Angstroms)
 Number     Number       Type             X           Y           Z
 ---------------------------------------------------------------------
      1          6           0       -0.745860   -1.172550    1.557830
      2          6           0        0.449060   -0.841750    1.091890
      3          1           0       -0.852610   -1.849450    2.401960
      4          1           0       -1.653680   -0.776530    1.109320
      5          1           0        1.356890   -1.237770    1.540390
      6          1           0        0.555810   -0.164850    0.247760
 ---------------------------------------------------------------------
                    Distance matrix (angstroms):
                    1          2          3          4          5
     1  C    0.000000
     2  C    1.324524   0.000000
     3  H    1.087265   2.103827   0.000000
     4  H    1.087258   2.103823   1.861126   0.000000
     5  H    2.103833   1.087262   2.449152   3.076052   0.000000
     6  H    2.103827   1.087265   3.076053   2.449139   1.861123
                    6
     6  H    0.000000
 Stoichiometry    C2H4
 Framework group  C1[X(C2H4)]
 Deg. of freedom    12
 Full point group                 C1      NOp   1
 Largest Abelian subgroup         C1      NOp   1
 Largest concise Abelian subgroup C1      NOp   1
                         Standard orientation:                         
 ---------------------------------------------------------------------
 Center     Atomic      Atomic             Coordinates (Angstroms)
 Number     Number       Type             X           Y           Z
 ---------------------------------------------------------------------
      1          6           0        0.662263    0.000001    0.000000
      2          6           0       -0.662261   -0.000001    0.000000
      3          1           0        1.224572   -0.930565    0.000000
      4          1           0        1.224569    0.930560    0.000003
      5          1           0       -1.224580   -0.930558    0.000003
      6          1           0       -1.224570    0.930565    0.000000
 ---------------------------------------------------------------------
 Rotational constants (GHZ):    144.7709037     30.4970117     25.1904631
 Standard basis: 6-31G(d,p) (6D, 7F)
 There are    50 symmetry adapted cartesian basis functions of A   symmetry.
 There are    50 symmetry adapted basis functions of A   symmetry.
    50 basis functions,    84 primitive gaussians,    50 cartesian basis functions
     8 alpha electrons        8 beta electrons
       nuclear repulsion energy        33.4453569118 Hartrees.
 NAtoms=    6 NActive=    6 NUniq=    6 SFac= 1.00D+00 NAtFMM=   60 NAOKFM=F Big=F
 Integral buffers will be    131072 words long.
 Raffenetti 2 integral format.
 Two-electron integral symmetry is turned on.
 One-electron integrals computed using PRISM.
 NBasis=    50 RedAO= T EigKep=  6.75D-03  NBF=    50
 NBsUse=    50 1.00D-06 EigRej= -1.00D+00 NBFU=    50
 ExpMin= 1.61D-01 ExpMax= 3.05D+03 ExpMxC= 4.57D+02 IAcc=1 IRadAn=         1 AccDes= 0.00D+00
 Harris functional with IExCor= 1009 and IRadAn=       1 diagonalized for initial guess.
 HarFok:  IExCor= 1009 AccDes= 0.00D+00 IRadAn=         1 IDoV= 1 UseB2=F ITyADJ=14
 ICtDFT=  3500011 ScaDFX=  1.000000  1.000000  1.000000  1.000000
 FoFCou: FMM=F IPFlag=           0 FMFlag=      100000 FMFlg1=           0
         NFxFlg=           0 DoJE=T BraDBF=F KetDBF=T FulRan=T
         wScrn=  0.000000 ICntrl=     500 IOpCl=  0 I1Cent=   200000004 NGrid=           0
         NMat0=    1 NMatS0=      1 NMatT0=    0 NMatD0=    1 NMtDS0=    0 NMtDT0=    0
 Petite list used in FoFCou.
 Keep R1 ints in memory in canonical form, NReq=1710110.
 Requested convergence on RMS density matrix=1.00D-08 within 128 cycles.
 Requested convergence on MAX density matrix=1.00D-06.
 Requested convergence on             energy=1.00D-06.
 No special actions if energy rises.
 Integral accuracy reduced to 1.0D-05 until final iterations.
 Initial convergence to 1.0D-05 achieved.  Increase integral accuracy.
 SCF Done:  E(RM062X) =  -78.5418707615     A.U. after   12 cycles
            NFock= 12  Conv=0.43D-08     -V/T= 2.0091

 **********************************************************************

            Population analysis using the SCF density.

 **********************************************************************

 Orbital symmetries:
       Occupied  (A) (A) (A) (A) (A) (A) (A) (A)
       Virtual   (A) (A) (A) (A) (A) (A) (A) (A) (A) (A) (A) (A)
                 (A) (A) (A) (A) (A) (A) (A) (A) (A) (A) (A) (A)
                 (A) (A) (A) (A) (A) (A) (A) (A) (A) (A) (A) (A)
                 (A) (A) (A) (A) (A) (A)
 The electronic state is 1-A.
 Alpha  occ. eigenvalues --  -10.54208 -10.54092  -0.85260  -0.65377  -0.53620
 Alpha  occ. eigenvalues --   -0.47486  -0.41103  -0.32599
 Alpha virt. eigenvalues --    0.06339   0.16805   0.18949   0.21032   0.29708
 Alpha virt. eigenvalues --    0.37428   0.51917   0.60443   0.61582   0.69727
 Alpha virt. eigenvalues --    0.70023   0.76614   0.89346   0.91870   0.98349
 Alpha virt. eigenvalues --    0.98672   1.14784   1.25520   1.44289   1.45477
 Alpha virt. eigenvalues --    1.59318   1.89133   1.94294   2.01779   2.07550
 Alpha virt. eigenvalues --    2.09520   2.18441   2.26567   2.39123   2.47581
 Alpha virt. eigenvalues --    2.54904   2.63259   2.70738   2.70883   2.76597
 Alpha virt. eigenvalues --    3.00715   3.16342   3.33337   3.48415   3.75239
 Alpha virt. eigenvalues --    4.20809   4.51867
          Condensed to atoms (all electrons):
               1          2          3          4          5          6
     1  C    4.864928   0.665777   0.395367   0.395368  -0.037728  -0.037728
     2  C    0.665777   4.864929  -0.037728  -0.037728   0.395367   0.395367
     3  H    0.395367  -0.037728   0.560283  -0.037250  -0.008313   0.004649
     4  H    0.395368  -0.037728  -0.037250   0.560281   0.004649  -0.008313
     5  H   -0.037728   0.395367  -0.008313   0.004649   0.560282  -0.037250
     6  H   -0.037728   0.395367   0.004649  -0.008313  -0.037250   0.560284
 Mulliken charges:
               1
     1  C   -0.245984
     2  C   -0.245984
     3  H    0.122992
     4  H    0.122993
     5  H    0.122992
     6  H    0.122991
 Sum of Mulliken charges =   0.00000
 Mulliken charges with hydrogens summed into heavy atoms:
               1
     1  C    0.000001
     2  C   -0.000001
 Electronic spatial extent (au):  <R**2>=             81.7461
 Charge=              0.0000 electrons
 Dipole moment (field-independent basis, Debye):
    X=              0.0000    Y=              0.0000    Z=              0.0000  Tot=              0.0000
 Quadrupole moment (field-independent basis, Debye-Ang):
   XX=            -12.0690   YY=            -12.0300   ZZ=            -15.1242
   XY=              0.0000   XZ=              0.0000   YZ=              0.0000
 Traceless Quadrupole moment (field-independent basis, Debye-Ang):
   XX=              1.0054   YY=              1.0444   ZZ=             -2.0498
   XY=              0.0000   XZ=              0.0000   YZ=              0.0000
 Octapole moment (field-independent basis, Debye-Ang**2):
  XXX=              0.0000  YYY=              0.0000  ZZZ=              0.0000  XYY=              0.0000
  XXY=              0.0000  XXZ=              0.0000  XZZ=              0.0000  YZZ=              0.0000
  YYZ=              0.0000  XYZ=              0.0000
 Hexadecapole moment (field-independent basis, Debye-Ang**3):
 XXXX=            -66.3484 YYYY=            -26.1468 ZZZZ=            -15.7318 XXXY=              0.0001
 XXXZ=              0.0000 YYYX=              0.0000 YYYZ=              0.0000 ZZZX=              0.0000
 ZZZY=              0.0000 XXYY=            -12.8937 XXZZ=            -14.5572 YYZZ=             -7.6444
 XXYZ=              0.0000 YYXZ=              0.0000 ZZXY=              0.0000
 N-N= 3.344535691183D+01 E-N=-2.482803809442D+02  KE= 7.783063253749D+01
 Calling FoFJK, ICntrl=      2127 FMM=F ISym2X=0 I1Cent= 0 IOpClX= 0 NMat=1 NMatS=1 NMatT=0.
 ***** Axes restored to original set *****
 -------------------------------------------------------------------
 Center     Atomic                   Forces (Hartrees/Bohr)
 Number     Number              X              Y              Z
 -------------------------------------------------------------------
      1        6          -0.002159374   -0.000601263    0.000845985
      2        6           0.002162825    0.000600376   -0.000845635
      3        1          -0.001468841    0.000950401   -0.001109586
      4        1           0.000206996   -0.001296908    0.001598435
      5        1          -0.000209970    0.001297703   -0.001598583
      6        1           0.001468365   -0.000950310    0.001109383
 -------------------------------------------------------------------
 Cartesian Forces:  Max     0.002162825 RMS     0.001261364

 GradGradGradGradGradGradGradGradGradGradGradGradGradGradGradGradGradGrad
 Berny optimization.
 FormGI is forming the generalized inverse of G from B-inverse, IUseBI=4.
 Internal  Forces:  Max     0.003792729 RMS     0.001543309
 Search for a local minimum.
 Step number   1 out of a maximum of   25
 All quantities printed in internal units (Hartrees-Bohrs-Radians)
 Mixed Optimization -- RFO/linear search
 Second derivative matrix not updated -- first step.
 The second derivative matrix:
                          R1        R2        R3        R4        R5
           R1           0.60818
           R2           0.00000   0.35131
           R3           0.00000   0.00000   0.35131
           R4           0.00000   0.00000   0.00000   0.35131
           R5           0.00000   0.00000   0.00000   0.00000   0.35131
           A1           0.00000   0.00000   0.00000   0.00000   0.00000
           A2           0.00000   0.00000   0.00000   0.00000   0.00000
           A3           0.00000   0.00000   0.00000   0.00000   0.00000
           A4           0.00000   0.00000   0.00000   0.00000   0.00000
           A5           0.00000   0.00000   0.00000   0.00000   0.00000
           A6           0.00000   0.00000   0.00000   0.00000   0.00000
           D1           0.00000   0.00000   0.00000   0.00000   0.00000
           D2           0.00000   0.00000   0.00000   0.00000   0.00000
           D3           0.00000   0.00000   0.00000   0.00000   0.00000
           D4           0.00000   0.00000   0.00000   0.00000   0.00000
                          A1        A2        A3        A4        A5
           A1           0.16000
           A2           0.00000   0.16000
           A3           0.00000   0.00000   0.16000
           A4           0.00000   0.00000   0.00000   0.16000
           A5           0.00000   0.00000   0.00000   0.00000   0.16000
           A6           0.00000   0.00000   0.00000   0.00000   0.00000
           D1           0.00000   0.00000   0.00000   0.00000   0.00000
           D2           0.00000   0.00000   0.00000   0.00000   0.00000
           D3           0.00000   0.00000   0.00000   0.00000   0.00000
           D4           0.00000   0.00000   0.00000   0.00000   0.00000
                          A6        D1        D2        D3        D4
           A6           0.16000
           D1           0.00000   0.03087
           D2           0.00000   0.00000   0.03087
           D3           0.00000   0.00000   0.00000   0.03087
           D4           0.00000   0.00000   0.00000   0.00000   0.03087
 ITU=  0
     Eigenvalues ---    0.03087   0.03087   0.03087   0.16000   0.16000
     Eigenvalues ---    0.16000   0.16000   0.35131   0.35131   0.35131
     Eigenvalues ---    0.35131   0.60818
 RFO step:  Lambda=-1.33681320D-04 EMin= 3.08716499D-02
 Linear search not attempted -- first point.
 Iteration  1 RMS(Cart)=  0.00880024 RMS(Int)=  0.00002719
 Iteration  2 RMS(Cart)=  0.00002709 RMS(Int)=  0.00000000
 Iteration  3 RMS(Cart)=  0.00000000 RMS(Int)=  0.00000000
 Variable       Old X    -DE/DX   Delta X   Delta X   Delta X     New X
                                 (Linear)    (Quad)   (Total)
    R1        2.50299   0.00379   0.00000   0.00623   0.00623   2.50922
    R2        2.05463  -0.00131   0.00000  -0.00372  -0.00372   2.05091
    R3        2.05462  -0.00130   0.00000  -0.00371  -0.00371   2.05091
    R4        2.05463  -0.00131   0.00000  -0.00372  -0.00372   2.05091
    R5        2.05463  -0.00131   0.00000  -0.00372  -0.00372   2.05091
    A1        2.11435   0.00110   0.00000   0.00687   0.00687   2.12121
    A2        2.11435   0.00110   0.00000   0.00687   0.00687   2.12121
    A3        2.05449  -0.00220   0.00000  -0.01373  -0.01373   2.04076
    A4        2.11436   0.00110   0.00000   0.00686   0.00686   2.12122
    A5        2.11435   0.00110   0.00000   0.00687   0.00687   2.12121
    A6        2.05448  -0.00220   0.00000  -0.01373  -0.01373   2.04075
    D1        0.00000   0.00000   0.00000   0.00000   0.00000   0.00000
    D2        3.14159   0.00000   0.00000   0.00000   0.00000  -3.14159
    D3       -3.14159   0.00000   0.00000  -0.00001  -0.00001   3.14159
    D4        0.00000   0.00000   0.00000   0.00000   0.00000   0.00000
         Item               Value     Threshold  Converged?
 Maximum Force            0.003793     0.000450     NO 
 RMS     Force            0.001543     0.000300     NO 
 Maximum Displacement     0.016452     0.001800     NO 
 RMS     Displacement     0.008794     0.001200     NO 
 Predicted change in Energy=-6.688480D-05
 GradGradGradGradGradGradGradGradGradGradGradGradGradGradGradGradGradGrad

                          Input orientation:                          
 ---------------------------------------------------------------------
 Center     Atomic      Atomic             Coordinates (Angstroms)
 Number     Number       Type             X           Y           Z
 ---------------------------------------------------------------------
      1          6           0       -0.747346   -1.172964    1.558410
      2          6           0        0.450549   -0.841338    1.091307
      3          1           0       -0.861313   -1.847991    2.400557
      4          1           0       -1.657601   -0.781481    1.115645
      5          1           0        1.360806   -1.232817    1.534070
      6          1           0        0.564516   -0.166309    0.249160
 ---------------------------------------------------------------------
                    Distance matrix (angstroms):
                    1          2          3          4          5
     1  C    0.000000
     2  C    1.327823   0.000000
     3  H    1.085294   2.109139   0.000000
     4  H    1.085294   2.109140   1.850005   0.000000
     5  H    2.109142   1.085294   2.463138   3.080513   0.000000
     6  H    2.109140   1.085294   3.080512   2.463136   1.850002
                    6
     6  H    0.000000
 Stoichiometry    C2H4
 Framework group  C1[X(C2H4)]
 Deg. of freedom    12
 Full point group                 C1      NOp   1
 Largest Abelian subgroup         C1      NOp   1
 Largest concise Abelian subgroup C1      NOp   1
                         Standard orientation:                         
 ---------------------------------------------------------------------
 Center     Atomic      Atomic             Coordinates (Angstroms)
 Number     Number       Type             X           Y           Z
 ---------------------------------------------------------------------
      1          6           0        0.663912    0.000000    0.000000
      2          6           0       -0.663911    0.000000    0.000000
      3          1           0        1.231568   -0.925003   -0.000001
      4          1           0        1.231568    0.925002   -0.000001
      5          1           0       -1.231571   -0.925000   -0.000001
      6          1           0       -1.231568    0.925002   -0.000001
 ---------------------------------------------------------------------
 Rotational constants (GHZ):    146.5166401     30.2745447     25.0901909
 Standard basis: 6-31G(d,p) (6D, 7F)
 There are    50 symmetry adapted cartesian basis functions of A   symmetry.
 There are    50 symmetry adapted basis functions of A   symmetry.
    50 basis functions,    84 primitive gaussians,    50 cartesian basis functions
     8 alpha electrons        8 beta electrons
       nuclear repulsion energy        33.4160676029 Hartrees.
 NAtoms=    6 NActive=    6 NUniq=    6 SFac= 1.00D+00 NAtFMM=   60 NAOKFM=F Big=F
 Integral buffers will be    131072 words long.
 Raffenetti 2 integral format.
 Two-electron integral symmetry is turned on.
 One-electron integrals computed using PRISM.
 NBasis=    50 RedAO= T EigKep=  6.85D-03  NBF=    50
 NBsUse=    50 1.00D-06 EigRej= -1.00D+00 NBFU=    50
 Initial guess from the checkpoint file:  "/scr/Gau-1154.chk"
 B after Tr=     0.000000    0.000000    0.000000
         Rot=    1.000000    0.000000    0.000000    0.000000 Ang=   0.00 deg.
 Keep R1 ints in memory in canonical form, NReq=1710110.
 Requested convergence on RMS density matrix=1.00D-08 within 128 cycles.
 Requested convergence on MAX density matrix=1.00D-06.
 Requested convergence on             energy=1.00D-06.
 No special actions if energy rises.
 SCF Done:  E(RM062X) =  -78.5419424290     A.U. after    7 cycles
            NFock=  7  Conv=0.61D-08     -V/T= 2.0091
 Calling FoFJK, ICntrl=      2127 FMM=F ISym2X=0 I1Cent= 0 IOpClX= 0 NMat=1 NMatS=1 NMatT=0.
 ***** Axes restored to original set *****
 -------------------------------------------------------------------
 Center     Atomic                   Forces (Hartrees/Bohr)
 Number     Number              X              Y              Z
 -------------------------------------------------------------------
      1        6           0.001715641    0.000474871   -0.000668694
      2        6          -0.001715220   -0.000474414    0.000668472
      3        1          -0.000349215   -0.000051476    0.000080063
      4        1          -0.000293202   -0.000126441    0.000170340
      5        1           0.000293036    0.000126099   -0.000170129
      6        1           0.000348960    0.000051361   -0.000080053
 -------------------------------------------------------------------
 Cartesian Forces:  Max     0.001715641 RMS     0.000656315

 GradGradGradGradGradGradGradGradGradGradGradGradGradGradGradGradGradGrad
 Berny optimization.
 Using GEDIIS/GDIIS optimizer.
 FormGI is forming the generalized inverse of G from B-inverse, IUseBI=4.
 Internal  Forces:  Max     0.001189520 RMS     0.000376072
 Search for a local minimum.
 Step number   2 out of a maximum of   25
 All quantities printed in internal units (Hartrees-Bohrs-Radians)
 Mixed Optimization -- En-DIIS/RFO-DIIS
 Update second derivatives using D2CorX and points    1    2
 DE= -7.17D-05 DEPred=-6.69D-05 R= 1.07D+00
 TightC=F SS=  1.41D+00  RLast= 2.57D-02 DXNew= 5.0454D-01 7.7064D-02
 Trust test= 1.07D+00 RLast= 2.57D-02 DXMaxT set to 3.00D-01
 The second derivative matrix:
                          R1        R2        R3        R4        R5
           R1           0.70066
           R2          -0.02069   0.35520
           R3          -0.02064   0.00389   0.35519
           R4          -0.02067   0.00389   0.00389   0.35520
           R5          -0.02068   0.00389   0.00389   0.00389   0.35520
           A1           0.00372   0.00068   0.00067   0.00067   0.00068
           A2           0.00371   0.00068   0.00067   0.00067   0.00068
           A3          -0.00743  -0.00135  -0.00134  -0.00135  -0.00135
           A4           0.00372   0.00067   0.00067   0.00067   0.00067
           A5           0.00372   0.00068   0.00067   0.00067   0.00068
           A6          -0.00744  -0.00135  -0.00134  -0.00134  -0.00135
           D1           0.00000   0.00000   0.00000   0.00000   0.00000
           D2           0.00000   0.00000   0.00000   0.00000   0.00000
           D3          -0.00001   0.00000   0.00000   0.00000   0.00000
           D4           0.00000   0.00000   0.00000   0.00000   0.00000
                          A1        A2        A3        A4        A5
           A1           0.15705
           A2          -0.00295   0.15705
           A3           0.00590   0.00590   0.14820
           A4          -0.00295  -0.00294   0.00589   0.15706
           A5          -0.00295  -0.00295   0.00590  -0.00295   0.15705
           A6           0.00590   0.00589  -0.01179   0.00588   0.00590
           D1           0.00000   0.00000   0.00000   0.00000   0.00000
           D2           0.00000   0.00000   0.00000   0.00000   0.00000
           D3           0.00000   0.00000   0.00000   0.00000   0.00000
           D4           0.00000   0.00000   0.00000   0.00000   0.00000
                          A6        D1        D2        D3        D4
           A6           0.14822
           D1           0.00000   0.03087
           D2           0.00000   0.00000   0.03087
           D3           0.00000   0.00000   0.00000   0.03087
           D4           0.00000   0.00000   0.00000   0.00000   0.03087
 ITU=  1  0
 Use linear search instead of GDIIS.
     Eigenvalues ---    0.03087   0.03087   0.03087   0.12421   0.16000
     Eigenvalues ---    0.16000   0.16000   0.35131   0.35131   0.35131
     Eigenvalues ---    0.36199   0.70596
 RFO step:  Lambda=-6.75009852D-06 EMin= 3.08716499D-02
 Quartic linear search produced a step of  0.07763.
 Iteration  1 RMS(Cart)=  0.00165416 RMS(Int)=  0.00000192
 Iteration  2 RMS(Cart)=  0.00000192 RMS(Int)=  0.00000000
 Iteration  3 RMS(Cart)=  0.00000000 RMS(Int)=  0.00000000
 Variable       Old X    -DE/DX   Delta X   Delta X   Delta X     New X
                                 (Linear)    (Quad)   (Total)
    R1        2.50922  -0.00119   0.00048  -0.00228  -0.00179   2.50743
    R2        2.05091   0.00013  -0.00029   0.00050   0.00021   2.05112
    R3        2.05091   0.00013  -0.00029   0.00050   0.00021   2.05112
    R4        2.05091   0.00013  -0.00029   0.00050   0.00021   2.05112
    R5        2.05091   0.00013  -0.00029   0.00050   0.00021   2.05112
    A1        2.12121   0.00023   0.00053   0.00137   0.00190   2.12311
    A2        2.12121   0.00023   0.00053   0.00137   0.00190   2.12311
    A3        2.04076  -0.00046  -0.00107  -0.00273  -0.00380   2.03696
    A4        2.12122   0.00023   0.00053   0.00136   0.00190   2.12311
    A5        2.12121   0.00023   0.00053   0.00137   0.00190   2.12311
    A6        2.04075  -0.00046  -0.00107  -0.00273  -0.00380   2.03696
    D1        0.00000   0.00000   0.00000   0.00000   0.00000   0.00000
    D2       -3.14159   0.00000   0.00000   0.00000   0.00000   3.14159
    D3        3.14159   0.00000   0.00000   0.00000   0.00000  -3.14159
    D4        0.00000   0.00000   0.00000   0.00000   0.00000   0.00000
         Item               Value     Threshold  Converged?
 Maximum Force            0.001190     0.000450     NO 
 RMS     Force            0.000376     0.000300     NO 
 Maximum Displacement     0.003085     0.001800     NO 
 RMS     Displacement     0.001655     0.001200     NO 
 Predicted change in Energy=-3.749868D-06
 GradGradGradGradGradGradGradGradGradGradGradGradGradGradGradGradGradGrad

                          Input orientation:                          
 ---------------------------------------------------------------------
 Center     Atomic      Atomic             Coordinates (Angstroms)
 Number     Number       Type             X           Y           Z
 ---------------------------------------------------------------------
      1          6           0       -0.746918   -1.172845    1.558244
      2          6           0        0.450121   -0.841455    1.091474
      3          1           0       -0.862945   -1.847760    2.400345
      4          1           0       -1.658387   -0.782384    1.116800
      5          1           0        1.361590   -1.231916    1.532916
      6          1           0        0.566148   -0.166541    0.249371
 ---------------------------------------------------------------------
                    Distance matrix (angstroms):
                    1          2          3          4          5
     1  C    0.000000
     2  C    1.326874   0.000000
     3  H    1.085407   2.109487   0.000000
     4  H    1.085407   2.109487   1.848038   0.000000
     5  H    2.109487   1.085407   2.465817   3.081476   0.000000
     6  H    2.109487   1.085407   3.081476   2.465817   1.848037
                    6
     6  H    0.000000
 Stoichiometry    C2H4
 Framework group  C1[X(C2H4)]
 Deg. of freedom    12
 Full point group                 C1      NOp   1
 Largest Abelian subgroup         C1      NOp   1
 Largest concise Abelian subgroup C1      NOp   1
                         Standard orientation:                         
 ---------------------------------------------------------------------
 Center     Atomic      Atomic             Coordinates (Angstroms)
 Number     Number       Type             X           Y           Z
 ---------------------------------------------------------------------
      1          6           0        0.663437    0.000000    0.000000
      2          6           0       -0.663437    0.000000    0.000000
      3          1           0        1.232908   -0.924019    0.000000
      4          1           0        1.232908    0.924019    0.000000
      5          1           0       -1.232909   -0.924019    0.000000
      6          1           0       -1.232909    0.924019    0.000000
 ---------------------------------------------------------------------
 Rotational constants (GHZ):    146.8285717     30.2778154     25.1015701
 Standard basis: 6-31G(d,p) (6D, 7F)
 There are    50 symmetry adapted cartesian basis functions of A   symmetry.
 There are    50 symmetry adapted basis functions of A   symmetry.
    50 basis functions,    84 primitive gaussians,    50 cartesian basis functions
     8 alpha electrons        8 beta electrons
       nuclear repulsion energy        33.4241529828 Hartrees.
 NAtoms=    6 NActive=    6 NUniq=    6 SFac= 1.00D+00 NAtFMM=   60 NAOKFM=F Big=F
 Integral buffers will be    131072 words long.
 Raffenetti 2 integral format.
 Two-electron integral symmetry is turned on.
 One-electron integrals computed using PRISM.
 NBasis=    50 RedAO= T EigKep=  6.83D-03  NBF=    50
 NBsUse=    50 1.00D-06 EigRej= -1.00D+00 NBFU=    50
 Initial guess from the checkpoint file:  "/scr/Gau-1154.chk"
 B after Tr=     0.000000    0.000000    0.000000
         Rot=    1.000000    0.000000    0.000000    0.000000 Ang=   0.00 deg.
 Keep R1 ints in memory in canonical form, NReq=1710110.
 Requested convergence on RMS density matrix=1.00D-08 within 128 cycles.
 Requested convergence on MAX density matrix=1.00D-06.
 Requested convergence on             energy=1.00D-06.
 No special actions if energy rises.
 SCF Done:  E(RM062X) =  -78.5419468181     A.U. after    6 cycles
            NFock=  6  Conv=0.36D-08     -V/T= 2.0091
 Calling FoFJK, ICntrl=      2127 FMM=F ISym2X=0 I1Cent= 0 IOpClX= 0 NMat=1 NMatS=1 NMatT=0.
 ***** Axes restored to original set *****
 -------------------------------------------------------------------
 Center     Atomic                   Forces (Hartrees/Bohr)
 Number     Number              X              Y              Z
 -------------------------------------------------------------------
      1        6           0.000379643    0.000105182   -0.000148249
      2        6          -0.000379624   -0.000105181    0.000148023
      3        1          -0.000059351   -0.000054688    0.000070633
      4        1          -0.000106594    0.000008684   -0.000005734
      5        1           0.000106637   -0.000008719    0.000005872
      6        1           0.000059288    0.000054722   -0.000070546
 -------------------------------------------------------------------
 Cartesian Forces:  Max     0.000379643 RMS     0.000149108

 GradGradGradGradGradGradGradGradGradGradGradGradGradGradGradGradGradGrad
 Berny optimization.
 Using GEDIIS/GDIIS optimizer.
 FormGI is forming the generalized inverse of G from B-inverse, IUseBI=4.
 Internal  Forces:  Max     0.000236888 RMS     0.000084062
 Search for a local minimum.
 Step number   3 out of a maximum of   25
 All quantities printed in internal units (Hartrees-Bohrs-Radians)
 Mixed Optimization -- En-DIIS/RFO-DIIS
 Swapping is turned off.
 Update second derivatives using D2CorX and points    1    2    3
 DE= -4.39D-06 DEPred=-3.75D-06 R= 1.17D+00
 TightC=F SS=  1.41D+00  RLast= 6.83D-03 DXNew= 5.0454D-01 2.0491D-02
 Trust test= 1.17D+00 RLast= 6.83D-03 DXMaxT set to 3.00D-01
 The second derivative matrix:
                          R1        R2        R3        R4        R5
           R1           0.66269
           R2          -0.00946   0.35486
           R3          -0.00943   0.00354   0.35484
           R4          -0.00945   0.00355   0.00353   0.35485
           R5          -0.00946   0.00355   0.00354   0.00354   0.35485
           A1           0.01071  -0.00261  -0.00261  -0.00261  -0.00261
           A2           0.01071  -0.00261  -0.00260  -0.00260  -0.00260
           A3          -0.02142   0.00521   0.00521   0.00521   0.00521
           A4           0.01070  -0.00260  -0.00260  -0.00260  -0.00260
           A5           0.01071  -0.00261  -0.00261  -0.00261  -0.00261
           A6          -0.02140   0.00521   0.00521   0.00521   0.00521
           D1           0.00000   0.00000   0.00000   0.00000   0.00000
           D2           0.00001   0.00000   0.00000   0.00000   0.00000
           D3          -0.00001   0.00000   0.00000   0.00000   0.00000
           D4           0.00000   0.00000   0.00000   0.00000   0.00000
                          A1        A2        A3        A4        A5
           A1           0.15624
           A2          -0.00376   0.15624
           A3           0.00752   0.00752   0.14496
           A4          -0.00375  -0.00375   0.00751   0.15625
           A5          -0.00376  -0.00376   0.00752  -0.00375   0.15624
           A6           0.00751   0.00751  -0.01502   0.00750   0.00751
           D1           0.00000   0.00000   0.00000   0.00000   0.00000
           D2           0.00000   0.00000   0.00000   0.00000   0.00000
           D3           0.00000   0.00000   0.00000   0.00000   0.00000
           D4           0.00000   0.00000   0.00000   0.00000   0.00000
                          A6        D1        D2        D3        D4
           A6           0.14499
           D1           0.00000   0.03087
           D2           0.00000   0.00000   0.03087
           D3           0.00000   0.00000   0.00000   0.03087
           D4           0.00000   0.00000   0.00000   0.00000   0.03087
 ITU=  1  1  0
     Eigenvalues ---    0.03087   0.03087   0.03087   0.11132   0.16000
     Eigenvalues ---    0.16000   0.16000   0.35131   0.35131   0.35131
     Eigenvalues ---    0.36524   0.66653
 En-DIIS/RFO-DIIS IScMMF=        0 using points:     3    2
 RFO step:  Lambda=-1.78588642D-07.
 DidBck=F Rises=F RFO-DIIS coefs:    1.20518   -0.20518
 Iteration  1 RMS(Cart)=  0.00031137 RMS(Int)=  0.00000008
 Iteration  2 RMS(Cart)=  0.00000009 RMS(Int)=  0.00000000
 Variable       Old X    -DE/DX   Delta X   Delta X   Delta X     New X
                                 (Linear)    (Quad)   (Total)
    R1        2.50743  -0.00024  -0.00037  -0.00004  -0.00041   2.50702
    R2        2.05112   0.00010   0.00004   0.00024   0.00028   2.05140
    R3        2.05112   0.00009   0.00004   0.00024   0.00028   2.05140
    R4        2.05112   0.00010   0.00004   0.00024   0.00028   2.05140
    R5        2.05112   0.00010   0.00004   0.00024   0.00028   2.05140
    A1        2.12311   0.00003   0.00039  -0.00003   0.00036   2.12347
    A2        2.12311   0.00003   0.00039  -0.00003   0.00036   2.12347
    A3        2.03696  -0.00007  -0.00078   0.00006  -0.00072   2.03624
    A4        2.12311   0.00003   0.00039  -0.00003   0.00036   2.12347
    A5        2.12311   0.00003   0.00039  -0.00003   0.00036   2.12347
    A6        2.03696  -0.00007  -0.00078   0.00006  -0.00072   2.03624
    D1        0.00000   0.00000   0.00000   0.00000   0.00000   0.00000
    D2        3.14159   0.00000   0.00000   0.00000   0.00000  -3.14159
    D3       -3.14159   0.00000   0.00000   0.00000   0.00000   3.14159
    D4        0.00000   0.00000   0.00000   0.00000   0.00000   0.00000
         Item               Value     Threshold  Converged?
 Maximum Force            0.000237     0.000450     YES
 RMS     Force            0.000084     0.000300     YES
 Maximum Displacement     0.000574     0.001800     YES
 RMS     Displacement     0.000311     0.001200     YES
 Predicted change in Energy=-1.745555D-07
 Optimization completed.
    -- Stationary point found.
                           ----------------------------
                           !   Optimized Parameters   !
                           ! (Angstroms and Degrees)  !
 --------------------------                            --------------------------
 ! Name  Definition              Value          Derivative Info.                !
 --------------------------------------------------------------------------------
 ! R1    R(1,2)                  1.3269         -DE/DX =   -0.0002              !
 ! R2    R(1,3)                  1.0854         -DE/DX =    0.0001              !
 ! R3    R(1,4)                  1.0854         -DE/DX =    0.0001              !
 ! R4    R(2,5)                  1.0854         -DE/DX =    0.0001              !
 ! R5    R(2,6)                  1.0854         -DE/DX =    0.0001              !
 ! A1    A(2,1,3)              121.6455         -DE/DX =    0.0                 !
 ! A2    A(2,1,4)              121.6454         -DE/DX =    0.0                 !
 ! A3    A(3,1,4)              116.7091         -DE/DX =   -0.0001              !
 ! A4    A(1,2,5)              121.6455         -DE/DX =    0.0                 !
 ! A5    A(1,2,6)              121.6455         -DE/DX =    0.0                 !
 ! A6    A(5,2,6)              116.709          -DE/DX =   -0.0001              !
 ! D1    D(3,1,2,5)              0.0            -DE/DX =    0.0                 !
 ! D2    D(3,1,2,6)           -180.0001         -DE/DX =    0.0                 !
 ! D3    D(4,1,2,5)            180.0001         -DE/DX =    0.0                 !
 ! D4    D(4,1,2,6)              0.0            -DE/DX =    0.0                 !
 --------------------------------------------------------------------------------
 GradGradGradGradGradGradGradGradGradGradGradGradGradGradGradGradGradGrad

                          Input orientation:                          
 ---------------------------------------------------------------------
 Center     Atomic      Atomic             Coordinates (Angstroms)
 Number     Number       Type             X           Y           Z
 ---------------------------------------------------------------------
      1          6           0       -0.746918   -1.172845    1.558244
      2          6           0        0.450121   -0.841455    1.091474
      3          1           0       -0.862945   -1.847760    2.400345
      4          1           0       -1.658387   -0.782384    1.116800
      5          1           0        1.361590   -1.231916    1.532916
      6          1           0        0.566148   -0.166541    0.249371
 ---------------------------------------------------------------------
                    Distance matrix (angstroms):
                    1          2          3          4          5
     1  C    0.000000
     2  C    1.326874   0.000000
     3  H    1.085407   2.109487   0.000000
     4  H    1.085407   2.109487   1.848038   0.000000
     5  H    2.109487   1.085407   2.465817   3.081476   0.000000
     6  H    2.109487   1.085407   3.081476   2.465817   1.848037
                    6
     6  H    0.000000
 Stoichiometry    C2H4
 Framework group  C1[X(C2H4)]
 Deg. of freedom    12
 Full point group                 C1      NOp   1
 Largest Abelian subgroup         C1      NOp   1
 Largest concise Abelian subgroup C1      NOp   1
                         Standard orientation:                         
 ---------------------------------------------------------------------
 Center     Atomic      Atomic             Coordinates (Angstroms)
 Number     Number       Type             X           Y           Z
 ---------------------------------------------------------------------
      1          6           0        0.663437    0.000000    0.000000
      2          6           0       -0.663437    0.000000    0.000000
      3          1           0        1.232908   -0.924019    0.000000
      4          1           0        1.232908    0.924019    0.000000
      5          1           0       -1.232909   -0.924018    0.000000
      6          1           0       -1.232909    0.924019    0.000000
 ---------------------------------------------------------------------
 Rotational constants (GHZ):    146.8285717     30.2778154     25.1015701

 **********************************************************************

            Population analysis using the SCF density.

 **********************************************************************

 Orbital symmetries:
       Occupied  (A) (A) (A) (A) (A) (A) (A) (A)
       Virtual   (A) (A) (A) (A) (A) (A) (A) (A) (A) (A) (A) (A)
                 (A) (A) (A) (A) (A) (A) (A) (A) (A) (A) (A) (A)
                 (A) (A) (A) (A) (A) (A) (A) (A) (A) (A) (A) (A)
                 (A) (A) (A) (A) (A) (A)
 The electronic state is 1-A.
 Alpha  occ. eigenvalues --  -10.54236 -10.54121  -0.85194  -0.65584  -0.53471
 Alpha  occ. eigenvalues --   -0.47695  -0.41078  -0.32559
 Alpha virt. eigenvalues --    0.06258   0.16993   0.18975   0.21001   0.29725
 Alpha virt. eigenvalues --    0.37539   0.52019   0.60481   0.61132   0.69894
 Alpha virt. eigenvalues --    0.69979   0.76296   0.89486   0.91927   0.98618
 Alpha virt. eigenvalues --    0.98965   1.14612   1.24192   1.44479   1.45194
 Alpha virt. eigenvalues --    1.59409   1.89273   1.95008   2.01025   2.09217
 Alpha virt. eigenvalues --    2.09361   2.17957   2.25955   2.39681   2.47360
 Alpha virt. eigenvalues --    2.54715   2.64105   2.70411   2.70458   2.77524
 Alpha virt. eigenvalues --    3.02531   3.16277   3.33829   3.47616   3.76566
 Alpha virt. eigenvalues --    4.20825   4.51645
          Condensed to atoms (all electrons):
               1          2          3          4          5          6
     1  C    4.863874   0.666236   0.395269   0.395268  -0.037093  -0.037093
     2  C    0.666236   4.863874  -0.037093  -0.037093   0.395268   0.395268
     3  H    0.395269  -0.037093   0.560511  -0.038414  -0.008085   0.004582
     4  H    0.395268  -0.037093  -0.038414   0.560511   0.004582  -0.008085
     5  H   -0.037093   0.395268  -0.008085   0.004582   0.560511  -0.038414
     6  H   -0.037093   0.395268   0.004582  -0.008085  -0.038414   0.560511
 Mulliken charges:
               1
     1  C   -0.246461
     2  C   -0.246461
     3  H    0.123231
     4  H    0.123231
     5  H    0.123231
     6  H    0.123231
 Sum of Mulliken charges =   0.00000
 Mulliken charges with hydrogens summed into heavy atoms:
               1
     1  C    0.000000
     2  C    0.000000
 Electronic spatial extent (au):  <R**2>=             81.9070
 Charge=              0.0000 electrons
 Dipole moment (field-independent basis, Debye):
    X=              0.0000    Y=              0.0000    Z=              0.0000  Tot=              0.0000
 Quadrupole moment (field-independent basis, Debye-Ang):
   XX=            -11.9817   YY=            -12.0870   ZZ=            -15.1208
   XY=              0.0000   XZ=              0.0000   YZ=              0.0000
 Traceless Quadrupole moment (field-independent basis, Debye-Ang):
   XX=              1.0814   YY=              0.9762   ZZ=             -2.0576
   XY=              0.0000   XZ=              0.0000   YZ=              0.0000
 Octapole moment (field-independent basis, Debye-Ang**2):
  XXX=              0.0000  YYY=              0.0000  ZZZ=              0.0000  XYY=              0.0000
  XXY=              0.0000  XXZ=              0.0000  XZZ=              0.0000  YZZ=              0.0000
  YYZ=              0.0000  XYZ=              0.0000
 Hexadecapole moment (field-independent basis, Debye-Ang**3):
 XXXX=            -66.4031 YYYY=            -26.0701 ZZZZ=            -15.7299 XXXY=              0.0000
 XXXZ=              0.0000 YYYX=              0.0000 YYYZ=              0.0000 ZZZX=              0.0000
 ZZZY=              0.0000 XXYY=            -12.9236 XXZZ=            -14.6140 YYZZ=             -7.6089
 XXYZ=              0.0000 YYXZ=              0.0000 ZZXY=              0.0000
 N-N= 3.342415298281D+01 E-N=-2.482353009278D+02  KE= 7.783187931808D+01
 1\1\GINC-N0299\FOpt\RM062X\6-31G(d,p)\C2H4\TAIYUPAN\24-Feb-2017\0\\#n 
 M062X/6-31G(d,p) Opt\\Title\\0,1\C,-0.7469176237,-1.1728446107,1.55824
 35901\C,0.4501208015,-0.8414549713,1.0914737725\H,-0.8629450338,-1.847
 7595089,2.4003454568\H,-1.6583868839,-0.7823836963,1.1167997145\H,1.36
 15903523,-1.2319162138,1.5329164054\H,0.5661483895,-0.1665410013,0.249
 3710634\\Version=ES64L-G09RevE.01\State=1-A\HF=-78.5419468\RMSD=3.646e
 -09\RMSF=1.491e-04\Dipole=0.,-0.0000005,-0.0000004\Quadrupole=0.787512
 1,-0.6345992,-0.1529129,-0.0338463,-0.0663571,-1.1081655\PG=C01 [X(C2H
 4)]\\@


 LIVE PURE, SPEAK TRUE, RIGHT WRONG, FOLLOW THE KING...
 ELSE, WHEREFORE BORN......
           IDYLLS OF THE KING, TENNYSON
 Job cpu time:       0 days  0 hours  0 minutes 47.1 seconds.
 File lengths (MBytes):  RWF=      5 Int=      0 D2E=      0 Chk=      1 Scr=      1
 Normal termination of Gaussian 09 at Fri Feb 24 00:15:50 2017.
