 Entering Gaussian System, Link 0=g09
 Input=CH2_CCSD_6Gdp.com
 Output=CH2_CCSD_6Gdp.log
 Initial command:
 /sw/contrib/gaussian/g09/E01/g09/l1.exe "/scr/Gau-18156.inp" -scrdir="/scr/"
 Entering Link 1 = /sw/contrib/gaussian/g09/E01/g09/l1.exe PID=     18157.
  
 Copyright (c) 1988,1990,1992,1993,1995,1998,2003,2009,2015,
            Gaussian, Inc.  All Rights Reserved.
  
 This is part of the Gaussian(R) 09 program.  It is based on
 the Gaussian(R) 03 system (copyright 2003, Gaussian, Inc.),
 the Gaussian(R) 98 system (copyright 1998, Gaussian, Inc.),
 the Gaussian(R) 94 system (copyright 1995, Gaussian, Inc.),
 the Gaussian 92(TM) system (copyright 1992, Gaussian, Inc.),
 the Gaussian 90(TM) system (copyright 1990, Gaussian, Inc.),
 the Gaussian 88(TM) system (copyright 1988, Gaussian, Inc.),
 the Gaussian 86(TM) system (copyright 1986, Carnegie Mellon
 University), and the Gaussian 82(TM) system (copyright 1983,
 Carnegie Mellon University). Gaussian is a federally registered
 trademark of Gaussian, Inc.
  
 This software contains proprietary and confidential information,
 including trade secrets, belonging to Gaussian, Inc.
  
 This software is provided under written license and may be
 used, copied, transmitted, or stored only in accord with that
 written license.
  
 The following legend is applicable only to US Government
 contracts under FAR:
  
                    RESTRICTED RIGHTS LEGEND
  
 Use, reproduction and disclosure by the US Government is
 subject to restrictions as set forth in subparagraphs (a)
 and (c) of the Commercial Computer Software - Restricted
 Rights clause in FAR 52.227-19.
  
 Gaussian, Inc.
 340 Quinnipiac St., Bldg. 40, Wallingford CT 06492
  
  
 ---------------------------------------------------------------
 Warning -- This program may not be used in any manner that
 competes with the business of Gaussian, Inc. or will provide
 assistance to any competitor of Gaussian, Inc.  The licensee
 of this program is prohibited from giving any competitor of
 Gaussian, Inc. access to this program.  By using this program,
 the user acknowledges that Gaussian, Inc. is engaged in the
 business of creating and licensing software in the field of
 computational chemistry and represents and warrants to the
 licensee that it is not a competitor of Gaussian, Inc. and that
 it will not use this program in any manner prohibited above.
 ---------------------------------------------------------------
  

 Cite this work as:
 Gaussian 09, Revision E.01,
 M. J. Frisch, G. W. Trucks, H. B. Schlegel, G. E. Scuseria, 
 M. A. Robb, J. R. Cheeseman, G. Scalmani, V. Barone, B. Mennucci, 
 G. A. Petersson, H. Nakatsuji, M. Caricato, X. Li, H. P. Hratchian, 
 A. F. Izmaylov, J. Bloino, G. Zheng, J. L. Sonnenberg, M. Hada, 
 M. Ehara, K. Toyota, R. Fukuda, J. Hasegawa, M. Ishida, T. Nakajima, 
 Y. Honda, O. Kitao, H. Nakai, T. Vreven, J. A. Montgomery, Jr., 
 J. E. Peralta, F. Ogliaro, M. Bearpark, J. J. Heyd, E. Brothers, 
 K. N. Kudin, V. N. Staroverov, T. Keith, R. Kobayashi, J. Normand, 
 K. Raghavachari, A. Rendell, J. C. Burant, S. S. Iyengar, J. Tomasi, 
 M. Cossi, N. Rega, J. M. Millam, M. Klene, J. E. Knox, J. B. Cross, 
 V. Bakken, C. Adamo, J. Jaramillo, R. Gomperts, R. E. Stratmann, 
 O. Yazyev, A. J. Austin, R. Cammi, C. Pomelli, J. W. Ochterski, 
 R. L. Martin, K. Morokuma, V. G. Zakrzewski, G. A. Voth, 
 P. Salvador, J. J. Dannenberg, S. Dapprich, A. D. Daniels, 
 O. Farkas, J. B. Foresman, J. V. Ortiz, J. Cioslowski, 
 and D. J. Fox, Gaussian, Inc., Wallingford CT, 2013.
 
 ******************************************
 Gaussian 09:  ES64L-G09RevE.01 30-Nov-2015
                24-Feb-2017 
 ******************************************
 %NProcShared=8
 Will use up to    8 processors via shared memory.
 ----------------------
 #n CCSD/6-31G(d,p) Opt
 ----------------------
 1/18=20,19=15,38=1/1,3;
 2/9=110,12=2,17=6,18=5,40=1/2;
 3/5=1,6=6,7=101,11=9,16=1,25=1,30=1,71=1/1,2,3;
 4//1;
 5/5=2,38=5/2;
 8/6=4,9=120000,10=2/1,4;
 9/5=7,15=1/13;
 11/28=-8,29=200,42=3/11;
 10/5=6/2;
 6/7=2,8=2,9=2,10=2/1;
 7/12=7/1,2,3,16;
 1/18=20,19=15/3(2);
 2/9=110/2;
 99//99;
 2/9=110/2;
 3/5=1,6=6,7=101,11=9,16=1,25=1,30=1,71=1/1,2,3;
 4/5=5,16=3,69=1/1;
 5/5=2,38=5/2;
 8/6=4,9=120000,10=2/1,4;
 9/5=7,15=1/13;
 11/28=-8,29=200,42=3/11;
 10/5=6/2;
 7/12=7/1,2,3,16;
 1/18=20,19=15/3(-9);
 2/9=110/2;
 6/7=2,8=2,9=2,10=2/1;
 99//99;
 -----
 Title
 -----
 Symbolic Z-matrix:
 Charge =  0 Multiplicity = 1
 C                    -0.74586  -1.17255   1.55783 
 C                     0.44906  -0.84175   1.09189 
 H                    -0.85261  -1.84945   2.40196 
 H                    -1.65368  -0.77653   1.10932 
 H                     1.35689  -1.23777   1.54039 
 H                     0.55581  -0.16485   0.24776 
 

 GradGradGradGradGradGradGradGradGradGradGradGradGradGradGradGradGradGrad
 Berny optimization.
 Initialization pass.
                           ----------------------------
                           !    Initial Parameters    !
                           ! (Angstroms and Degrees)  !
 --------------------------                            --------------------------
 ! Name  Definition              Value          Derivative Info.                !
 --------------------------------------------------------------------------------
 ! R1    R(1,2)                  1.3245         estimate D2E/DX2                !
 ! R2    R(1,3)                  1.0873         estimate D2E/DX2                !
 ! R3    R(1,4)                  1.0873         estimate D2E/DX2                !
 ! R4    R(2,5)                  1.0873         estimate D2E/DX2                !
 ! R5    R(2,6)                  1.0873         estimate D2E/DX2                !
 ! A1    A(2,1,3)              121.1431         estimate D2E/DX2                !
 ! A2    A(2,1,4)              121.1433         estimate D2E/DX2                !
 ! A3    A(3,1,4)              117.7137         estimate D2E/DX2                !
 ! A4    A(1,2,5)              121.1439         estimate D2E/DX2                !
 ! A5    A(1,2,6)              121.1431         estimate D2E/DX2                !
 ! A6    A(5,2,6)              117.713          estimate D2E/DX2                !
 ! D1    D(3,1,2,5)              0.0002         estimate D2E/DX2                !
 ! D2    D(3,1,2,6)            180.0            estimate D2E/DX2                !
 ! D3    D(4,1,2,5)           -179.9996         estimate D2E/DX2                !
 ! D4    D(4,1,2,6)              0.0002         estimate D2E/DX2                !
 --------------------------------------------------------------------------------
 Trust Radius=3.00D-01 FncErr=1.00D-07 GrdErr=1.00D-07
 Number of steps in this run=     25 maximum allowed number of steps=    100.
 GradGradGradGradGradGradGradGradGradGradGradGradGradGradGradGradGradGrad

                          Input orientation:                          
 ---------------------------------------------------------------------
 Center     Atomic      Atomic             Coordinates (Angstroms)
 Number     Number       Type             X           Y           Z
 ---------------------------------------------------------------------
      1          6           0       -0.745860   -1.172550    1.557830
      2          6           0        0.449060   -0.841750    1.091890
      3          1           0       -0.852610   -1.849450    2.401960
      4          1           0       -1.653680   -0.776530    1.109320
      5          1           0        1.356890   -1.237770    1.540390
      6          1           0        0.555810   -0.164850    0.247760
 ---------------------------------------------------------------------
                    Distance matrix (angstroms):
                    1          2          3          4          5
     1  C    0.000000
     2  C    1.324524   0.000000
     3  H    1.087265   2.103827   0.000000
     4  H    1.087258   2.103823   1.861126   0.000000
     5  H    2.103833   1.087262   2.449152   3.076052   0.000000
     6  H    2.103827   1.087265   3.076053   2.449139   1.861123
                    6
     6  H    0.000000
 Stoichiometry    C2H4
 Framework group  C1[X(C2H4)]
 Deg. of freedom    12
 Full point group                 C1      NOp   1
 Largest Abelian subgroup         C1      NOp   1
 Largest concise Abelian subgroup C1      NOp   1
                         Standard orientation:                         
 ---------------------------------------------------------------------
 Center     Atomic      Atomic             Coordinates (Angstroms)
 Number     Number       Type             X           Y           Z
 ---------------------------------------------------------------------
      1          6           0        0.662263    0.000001    0.000000
      2          6           0       -0.662261   -0.000001    0.000000
      3          1           0        1.224572   -0.930565    0.000000
      4          1           0        1.224569    0.930560    0.000003
      5          1           0       -1.224580   -0.930558    0.000003
      6          1           0       -1.224570    0.930565    0.000000
 ---------------------------------------------------------------------
 Rotational constants (GHZ):    144.7709037     30.4970117     25.1904631
 Standard basis: 6-31G(d,p) (6D, 7F)
 There are    50 symmetry adapted cartesian basis functions of A   symmetry.
 There are    50 symmetry adapted basis functions of A   symmetry.
    50 basis functions,    84 primitive gaussians,    50 cartesian basis functions
     8 alpha electrons        8 beta electrons
       nuclear repulsion energy        33.4453569118 Hartrees.
 NAtoms=    6 NActive=    6 NUniq=    6 SFac= 1.00D+00 NAtFMM=   60 NAOKFM=F Big=F
 Integral buffers will be    131072 words long.
 Raffenetti 1 integral format.
 Two-electron integral symmetry is turned on.
 One-electron integrals computed using PRISM.
 NBasis=    50 RedAO= T EigKep=  6.75D-03  NBF=    50
 NBsUse=    50 1.00D-06 EigRej= -1.00D+00 NBFU=    50
 ExpMin= 1.61D-01 ExpMax= 3.05D+03 ExpMxC= 4.57D+02 IAcc=1 IRadAn=         1 AccDes= 0.00D+00
 Harris functional with IExCor=  205 and IRadAn=       1 diagonalized for initial guess.
 HarFok:  IExCor=  205 AccDes= 0.00D+00 IRadAn=         1 IDoV= 1 UseB2=F ITyADJ=14
 ICtDFT=  3500011 ScaDFX=  1.000000  1.000000  1.000000  1.000000
 FoFCou: FMM=F IPFlag=           0 FMFlag=      100000 FMFlg1=           0
         NFxFlg=           0 DoJE=T BraDBF=F KetDBF=T FulRan=T
         wScrn=  0.000000 ICntrl=     500 IOpCl=  0 I1Cent=   200000004 NGrid=           0
         NMat0=    1 NMatS0=      1 NMatT0=    0 NMatD0=    1 NMtDS0=    0 NMtDT0=    0
 Petite list used in FoFCou.
 Keep R1 ints in memory in canonical form, NReq=1679714.
 Requested convergence on RMS density matrix=1.00D-08 within 128 cycles.
 Requested convergence on MAX density matrix=1.00D-06.
 Requested convergence on             energy=1.00D-06.
 No special actions if energy rises.
 SCF Done:  E(RHF) =  -78.0383398179     A.U. after    9 cycles
            NFock=  9  Conv=0.22D-08     -V/T= 2.0018
 ExpMin= 1.61D-01 ExpMax= 3.05D+03 ExpMxC= 4.57D+02 IAcc=3 IRadAn=         5 AccDes= 0.00D+00
 HarFok:  IExCor=  205 AccDes= 0.00D+00 IRadAn=         5 IDoV=-2 UseB2=F ITyADJ=14
 ICtDFT= 12500011 ScaDFX=  1.000000  1.000000  1.000000  1.000000
 Range of M.O.s used for correlation:     3    50
 NBasis=    50 NAE=     8 NBE=     8 NFC=     2 NFV=     0
 NROrb=     48 NOA=     6 NOB=     6 NVA=    42 NVB=    42
 Semi-Direct transformation.
 ModeAB=           2 MOrb=             6 LenV=      33351939
 LASXX=       297291 LTotXX=      297291 LenRXX=      297291
 LTotAB=      315756 MaxLAS=      367200 LenRXY=      367200
 NonZer=      594582 LenScr=     1571840 LnRSAI=           0
 LnScr1=           0 LExtra=           0 Total=      2236331
 MaxDsk=          -1 SrtSym=           F ITran=            4
 JobTyp=0 Pass  1:  I=   1 to   6.
 (rs|ai) integrals will be sorted in core.
 SymMOI:  orbitals are not symmetric.
 Spin components of T(2) and E(2):
     alpha-alpha T2 =       0.1037009547D-01 E2=     -0.2983015425D-01
     alpha-beta  T2 =       0.7572773294D-01 E2=     -0.2189678127D+00
     beta-beta   T2 =       0.1037009547D-01 E2=     -0.2983015425D-01
 ANorm=    0.1047123643D+01
 E2 =    -0.2786281212D+00 EUMP2 =    -0.78316967939059D+02
 Keep R2 and R3 ints in memory in canonical form, NReq=2448198.
 Iterations=  50 Convergence= 0.100D-07
 Iteration Nr.   1
 **********************
 DD1Dir will call FoFMem   1 times, MxPair=        42
 NAB=    21 NAA=     0 NBB=     0.
 MP4(R+Q)=  0.56243870D-02
 E3=       -0.23047946D-01        EUMP3=      -0.78340015885D+02
 E4(DQ)=   -0.19654840D-02        UMP4(DQ)=   -0.78341981369D+02
 E4(SDQ)=  -0.42830748D-02        UMP4(SDQ)=  -0.78344298960D+02
 DE(Corr)= -0.29592604     E(Corr)=     -78.334265855    
 NORM(A)=   0.10556823D+01
 Iteration Nr.   2
 **********************
 DD1Dir will call FoFMem   1 times, MxPair=        42
 NAB=    21 NAA=     0 NBB=     0.
 DE(Corr)= -0.30405784     E(CORR)=     -78.342397660     Delta=-8.13D-03
 NORM(A)=   0.10612380D+01
 Iteration Nr.   3
 **********************
 DD1Dir will call FoFMem   1 times, MxPair=        42
 NAB=    21 NAA=     0 NBB=     0.
 DE(Corr)= -0.30606728     E(CORR)=     -78.344407097     Delta=-2.01D-03
 NORM(A)=   0.10628160D+01
 Iteration Nr.   4
 **********************
 DD1Dir will call FoFMem   1 times, MxPair=        42
 NAB=    21 NAA=     0 NBB=     0.
 DE(Corr)= -0.30687595     E(CORR)=     -78.345215771     Delta=-8.09D-04
 NORM(A)=   0.10632233D+01
 Iteration Nr.   5
 **********************
 DD1Dir will call FoFMem   1 times, MxPair=        42
 NAB=    21 NAA=     0 NBB=     0.
 DE(Corr)= -0.30696302     E(CORR)=     -78.345302833     Delta=-8.71D-05
 NORM(A)=   0.10632521D+01
 Iteration Nr.   6
 **********************
 DD1Dir will call FoFMem   1 times, MxPair=        42
 NAB=    21 NAA=     0 NBB=     0.
 DE(Corr)= -0.30696517     E(CORR)=     -78.345304990     Delta=-2.16D-06
 NORM(A)=   0.10632522D+01
 Iteration Nr.   7
 **********************
 DD1Dir will call FoFMem   1 times, MxPair=        42
 NAB=    21 NAA=     0 NBB=     0.
 DE(Corr)= -0.30696481     E(CORR)=     -78.345304624     Delta= 3.66D-07
 NORM(A)=   0.10632541D+01
 Iteration Nr.   8
 **********************
 DD1Dir will call FoFMem   1 times, MxPair=        42
 NAB=    21 NAA=     0 NBB=     0.
 DE(Corr)= -0.30696481     E(CORR)=     -78.345304627     Delta=-2.32D-09
 NORM(A)=   0.10632539D+01
 Iteration Nr.   9
 **********************
 DD1Dir will call FoFMem   1 times, MxPair=        42
 NAB=    21 NAA=     0 NBB=     0.
 DE(Corr)= -0.30696493     E(CORR)=     -78.345304743     Delta=-1.17D-07
 NORM(A)=   0.10632540D+01
 Iteration Nr.  10
 **********************
 DD1Dir will call FoFMem   1 times, MxPair=        42
 NAB=    21 NAA=     0 NBB=     0.
 DE(Corr)= -0.30696494     E(CORR)=     -78.345304761     Delta=-1.74D-08
 NORM(A)=   0.10632540D+01
 Iteration Nr.  11
 **********************
 DD1Dir will call FoFMem   1 times, MxPair=        42
 NAB=    21 NAA=     0 NBB=     0.
 DE(Corr)= -0.30696496     E(CORR)=     -78.345304780     Delta=-1.96D-08
 NORM(A)=   0.10632541D+01
 Iteration Nr.  12
 **********************
 DD1Dir will call FoFMem   1 times, MxPair=        42
 NAB=    21 NAA=     0 NBB=     0.
 DE(Corr)= -0.30696497     E(CORR)=     -78.345304787     Delta=-6.71D-09
 NORM(A)=   0.10632541D+01
 Dominant configurations:
 ***********************
 Spin Case        I    J    A    B          Value
   ABAB           8    8    9    9      -0.142900D+00
 Largest amplitude= 1.43D-01

 Z-AMPLITUDE ITERATIONS

 Iteration Nr.   1
 **********************
 DD1Dir will call FoFMem   1 times, MxPair=        42
 NAB=    21 NAA=     0 NBB=     0.
 DE(Z)  -0.29830117D+00          E(Z)=    -0.78336640988D+02
 NORM(A)=   0.10632578D+01
 Iteration Nr.   2
 **********************
 DD1Dir will call FoFMem   1 times, MxPair=        42
 NAB=    21 NAA=     0 NBB=     0.
 DE(Z)  -0.29830214D+00          E(Z)=    -0.78336641956D+02
 NORM(A)=   0.10632460D+01
 Iteration Nr.   3
 **********************
 DD1Dir will call FoFMem   1 times, MxPair=        42
 NAB=    21 NAA=     0 NBB=     0.
 DE(Z)  -0.29829923D+00          E(Z)=    -0.78336639049D+02
 NORM(A)=   0.10632488D+01
 Iteration Nr.   4
 **********************
 DD1Dir will call FoFMem   1 times, MxPair=        42
 NAB=    21 NAA=     0 NBB=     0.
 DE(Z)  -0.29829990D+00          E(Z)=    -0.78336639714D+02
 NORM(A)=   0.10632678D+01
 Iteration Nr.   5
 **********************
 DD1Dir will call FoFMem   1 times, MxPair=        42
 NAB=    21 NAA=     0 NBB=     0.
 DE(Z)  -0.29830450D+00          E(Z)=    -0.78336644317D+02
 NORM(A)=   0.10586868D+01
 Iteration Nr.   6
 **********************
 DD1Dir will call FoFMem   1 times, MxPair=        42
 NAB=    21 NAA=     0 NBB=     0.
 DE(Z)  -0.29714342D+00          E(Z)=    -0.78335483243D+02
 NORM(A)=   0.10586857D+01
 Iteration Nr.   7
 **********************
 DD1Dir will call FoFMem   1 times, MxPair=        42
 NAB=    21 NAA=     0 NBB=     0.
 DE(Z)  -0.29714320D+00          E(Z)=    -0.78335483013D+02
 NORM(A)=   0.10586845D+01
 Iteration Nr.   8
 **********************
 DD1Dir will call FoFMem   1 times, MxPair=        42
 NAB=    21 NAA=     0 NBB=     0.
 DE(Z)  -0.29714300D+00          E(Z)=    -0.78335482817D+02
 NORM(A)=   0.10586844D+01
 Iteration Nr.   9
 **********************
 DD1Dir will call FoFMem   1 times, MxPair=        42
 NAB=    21 NAA=     0 NBB=     0.
 DE(Z)  -0.29714295D+00          E(Z)=    -0.78335482769D+02
 NORM(A)=   0.10586843D+01
 Iteration Nr.  10
 **********************
 DD1Dir will call FoFMem   1 times, MxPair=        42
 NAB=    21 NAA=     0 NBB=     0.
 DE(Z)  -0.29714294D+00          E(Z)=    -0.78335482762D+02
 NORM(A)=   0.10586843D+01
 Discarding MO integrals.
          IDoAtm=111111
          Differentiating once with respect to electric field.
                with respect to dipole field.
          Differentiating once with respect to nuclear coordinates.
 Keep R1 ints in memory in canonical form, NReq=1662452.
          There are     1 degrees of freedom in the 1st order CPHF.  IDoFFX=0 NUNeed=     1.
 LinEq1:  Iter=  0 NonCon=     1 RMS=5.20D-03 Max=7.62D-02 NDo=     1
 AX will form     1 AO Fock derivatives at one time.
 LinEq1:  Iter=  1 NonCon=     1 RMS=1.51D-03 Max=1.31D-02 NDo=     1
 LinEq1:  Iter=  2 NonCon=     1 RMS=2.59D-04 Max=2.54D-03 NDo=     1
 LinEq1:  Iter=  3 NonCon=     1 RMS=3.46D-05 Max=2.31D-04 NDo=     1
 LinEq1:  Iter=  4 NonCon=     1 RMS=3.39D-06 Max=2.43D-05 NDo=     1
 LinEq1:  Iter=  5 NonCon=     1 RMS=2.51D-07 Max=1.82D-06 NDo=     1
 LinEq1:  Iter=  6 NonCon=     1 RMS=2.05D-08 Max=1.35D-07 NDo=     1
 LinEq1:  Iter=  7 NonCon=     1 RMS=1.33D-09 Max=9.68D-09 NDo=     1
 LinEq1:  Iter=  8 NonCon=     1 RMS=2.57D-10 Max=3.12D-09 NDo=     1
 LinEq1:  Iter=  9 NonCon=     0 RMS=5.34D-11 Max=2.58D-10 NDo=     1
 Linear equations converged to 1.000D-10 1.000D-09 after     9 iterations.
 End of Minotr F.D. properties file   721 does not exist.
 End of Minotr F.D. properties file   722 does not exist.
 End of Minotr F.D. properties file   788 does not exist.

 **********************************************************************

            Population analysis using the SCF density.

 **********************************************************************

 Orbital symmetries:
       Occupied  (A) (A) (A) (A) (A) (A) (A) (A)
       Virtual   (A) (A) (A) (A) (A) (A) (A) (A) (A) (A) (A) (A)
                 (A) (A) (A) (A) (A) (A) (A) (A) (A) (A) (A) (A)
                 (A) (A) (A) (A) (A) (A) (A) (A) (A) (A) (A) (A)
                 (A) (A) (A) (A) (A) (A)
 The electronic state is 1-A.
 Alpha  occ. eigenvalues --  -11.22820 -11.22647  -1.02984  -0.78364  -0.63776
 Alpha  occ. eigenvalues --   -0.57945  -0.49970  -0.37284
 Alpha virt. eigenvalues --    0.18108   0.26261   0.29048   0.30834   0.39018
 Alpha virt. eigenvalues --    0.49146   0.65798   0.76991   0.77361   0.84996
 Alpha virt. eigenvalues --    0.89143   0.96192   1.07888   1.11748   1.16846
 Alpha virt. eigenvalues --    1.17725   1.33614   1.46198   1.64853   1.66925
 Alpha virt. eigenvalues --    1.80919   2.13727   2.19331   2.27152   2.32467
 Alpha virt. eigenvalues --    2.35477   2.44496   2.53142   2.67322   2.76709
 Alpha virt. eigenvalues --    2.84926   2.94492   3.01669   3.03439   3.08015
 Alpha virt. eigenvalues --    3.35294   3.53022   3.71163   3.86373   4.14021
 Alpha virt. eigenvalues --    4.60162   4.91627
          Condensed to atoms (all electrons):
               1          2          3          4          5          6
     1  C    4.880758   0.639928   0.408373   0.408374  -0.040881  -0.040882
     2  C    0.639928   4.880759  -0.040882  -0.040882   0.408373   0.408373
     3  H    0.408373  -0.040882   0.535911  -0.029918  -0.004540   0.003221
     4  H    0.408374  -0.040882  -0.029918   0.535909   0.003221  -0.004540
     5  H   -0.040881   0.408373  -0.004540   0.003221   0.535910  -0.029919
     6  H   -0.040882   0.408373   0.003221  -0.004540  -0.029919   0.535913
 Mulliken charges:
               1
     1  C   -0.255670
     2  C   -0.255670
     3  H    0.127835
     4  H    0.127836
     5  H    0.127835
     6  H    0.127834
 Sum of Mulliken charges =   0.00000
 Mulliken charges with hydrogens summed into heavy atoms:
               1
     1  C    0.000001
     2  C   -0.000001
 Electronic spatial extent (au):  <R**2>=             82.1047
 Charge=              0.0000 electrons
 Dipole moment (field-independent basis, Debye):
    X=              0.0000    Y=              0.0000    Z=              0.0000  Tot=              0.0000
 Quadrupole moment (field-independent basis, Debye-Ang):
   XX=            -12.1177   YY=            -12.1622   ZZ=            -15.4257
   XY=              0.0000   XZ=              0.0000   YZ=              0.0000
 Traceless Quadrupole moment (field-independent basis, Debye-Ang):
   XX=              1.1175   YY=              1.0730   ZZ=             -2.1905
   XY=              0.0000   XZ=              0.0000   YZ=              0.0000
 Octapole moment (field-independent basis, Debye-Ang**2):
  XXX=              0.0000  YYY=              0.0000  ZZZ=              0.0000  XYY=              0.0000
  XXY=              0.0000  XXZ=              0.0000  XZZ=              0.0000  YZZ=              0.0000
  YYZ=              0.0000  XYZ=              0.0000
 Hexadecapole moment (field-independent basis, Debye-Ang**3):
 XXXX=            -66.4742 YYYY=            -26.2112 ZZZZ=            -16.5014 XXXY=              0.0001
 XXXZ=              0.0000 YYYX=              0.0000 YYYZ=              0.0000 ZZZX=              0.0000
 ZZZY=              0.0000 XXYY=            -12.8473 XXZZ=            -14.7735 YYZZ=             -7.8268
 XXYZ=              0.0000 YYXZ=              0.0000 ZZXY=              0.0000
 N-N= 3.344535691183D+01 E-N=-2.481471326709D+02  KE= 7.789555158725D+01
 Calling FoFJK, ICntrl=  10002127 FMM=F ISym2X=0 I1Cent= 0 IOpClX= 0 NMat=1 NMatS=1 NMatT=0.
 ***** Axes restored to original set *****
 -------------------------------------------------------------------
 Center     Atomic                   Forces (Hartrees/Bohr)
 Number     Number              X              Y              Z
 -------------------------------------------------------------------
      1        6          -0.014546420   -0.004030528    0.005676180
      2        6           0.014549958    0.004029666   -0.005675870
      3        1          -0.001765586    0.002552339   -0.003081609
      4        1           0.001994251   -0.002486195    0.002989235
      5        1          -0.001997290    0.002486955   -0.002989328
      6        1           0.001765088   -0.002552238    0.003081393
 -------------------------------------------------------------------
 Cartesian Forces:  Max     0.014549958 RMS     0.005757478

 GradGradGradGradGradGradGradGradGradGradGradGradGradGradGradGradGradGrad
 Berny optimization.
 FormGI is forming the generalized inverse of G from B-inverse, IUseBI=4.
 Internal  Forces:  Max     0.015871148 RMS     0.004732019
 Search for a local minimum.
 Step number   1 out of a maximum of   25
 All quantities printed in internal units (Hartrees-Bohrs-Radians)
 Mixed Optimization -- RFO/linear search
 Second derivative matrix not updated -- first step.
 The second derivative matrix:
                          R1        R2        R3        R4        R5
           R1           0.60818
           R2           0.00000   0.35131
           R3           0.00000   0.00000   0.35131
           R4           0.00000   0.00000   0.00000   0.35131
           R5           0.00000   0.00000   0.00000   0.00000   0.35131
           A1           0.00000   0.00000   0.00000   0.00000   0.00000
           A2           0.00000   0.00000   0.00000   0.00000   0.00000
           A3           0.00000   0.00000   0.00000   0.00000   0.00000
           A4           0.00000   0.00000   0.00000   0.00000   0.00000
           A5           0.00000   0.00000   0.00000   0.00000   0.00000
           A6           0.00000   0.00000   0.00000   0.00000   0.00000
           D1           0.00000   0.00000   0.00000   0.00000   0.00000
           D2           0.00000   0.00000   0.00000   0.00000   0.00000
           D3           0.00000   0.00000   0.00000   0.00000   0.00000
           D4           0.00000   0.00000   0.00000   0.00000   0.00000
                          A1        A2        A3        A4        A5
           A1           0.16000
           A2           0.00000   0.16000
           A3           0.00000   0.00000   0.16000
           A4           0.00000   0.00000   0.00000   0.16000
           A5           0.00000   0.00000   0.00000   0.00000   0.16000
           A6           0.00000   0.00000   0.00000   0.00000   0.00000
           D1           0.00000   0.00000   0.00000   0.00000   0.00000
           D2           0.00000   0.00000   0.00000   0.00000   0.00000
           D3           0.00000   0.00000   0.00000   0.00000   0.00000
           D4           0.00000   0.00000   0.00000   0.00000   0.00000
                          A6        D1        D2        D3        D4
           A6           0.16000
           D1           0.00000   0.03087
           D2           0.00000   0.00000   0.03087
           D3           0.00000   0.00000   0.00000   0.03087
           D4           0.00000   0.00000   0.00000   0.00000   0.03087
 ITU=  0
     Eigenvalues ---    0.03087   0.03087   0.03087   0.16000   0.16000
     Eigenvalues ---    0.16000   0.16000   0.35131   0.35131   0.35131
     Eigenvalues ---    0.35131   0.60818
 RFO step:  Lambda=-7.40214949D-04 EMin= 3.08716499D-02
 Linear search not attempted -- first point.
 Iteration  1 RMS(Cart)=  0.01631922 RMS(Int)=  0.00006146
 Iteration  2 RMS(Cart)=  0.00006079 RMS(Int)=  0.00000000
 Iteration  3 RMS(Cart)=  0.00000000 RMS(Int)=  0.00000000
 Variable       Old X    -DE/DX   Delta X   Delta X   Delta X     New X
                                 (Linear)    (Quad)   (Total)
    R1        2.50299   0.01587   0.00000   0.02606   0.02606   2.52905
    R2        2.05463  -0.00381   0.00000  -0.01082  -0.01082   2.04382
    R3        2.05462  -0.00380   0.00000  -0.01080  -0.01080   2.04382
    R4        2.05463  -0.00381   0.00000  -0.01081  -0.01081   2.04382
    R5        2.05463  -0.00381   0.00000  -0.01082  -0.01082   2.04382
    A1        2.11435   0.00147   0.00000   0.00917   0.00917   2.12351
    A2        2.11435   0.00147   0.00000   0.00916   0.00916   2.12351
    A3        2.05449  -0.00295   0.00000  -0.01833  -0.01833   2.03616
    A4        2.11436   0.00147   0.00000   0.00915   0.00915   2.12351
    A5        2.11435   0.00147   0.00000   0.00917   0.00917   2.12351
    A6        2.05448  -0.00294   0.00000  -0.01832  -0.01832   2.03616
    D1        0.00000   0.00000   0.00000   0.00000   0.00000   0.00000
    D2        3.14159   0.00000   0.00000   0.00000   0.00000  -3.14159
    D3       -3.14159   0.00000   0.00000  -0.00001  -0.00001   3.14159
    D4        0.00000   0.00000   0.00000   0.00000   0.00000   0.00000
         Item               Value     Threshold  Converged?
 Maximum Force            0.015871     0.000450     NO 
 RMS     Force            0.004732     0.000300     NO 
 Maximum Displacement     0.029316     0.001800     NO 
 RMS     Displacement     0.016289     0.001200     NO 
 Predicted change in Energy=-3.709065D-04
 GradGradGradGradGradGradGradGradGradGradGradGradGradGradGradGradGradGrad

                          Input orientation:                          
 ---------------------------------------------------------------------
 Center     Atomic      Atomic             Coordinates (Angstroms)
 Number     Number       Type             X           Y           Z
 ---------------------------------------------------------------------
      1          6           0       -0.752080   -1.174274    1.560256
      2          6           0        0.455282   -0.840027    1.089461
      3          1           0       -0.868120   -1.846745    2.399331
      4          1           0       -1.660534   -0.785424    1.120670
      5          1           0        1.363739   -1.228874    1.529046
      6          1           0        0.571323   -0.167555    0.250387
 ---------------------------------------------------------------------
                    Distance matrix (angstroms):
                    1          2          3          4          5
     1  C    0.000000
     2  C    1.338316   0.000000
     3  H    1.081541   2.116751   0.000000
     4  H    1.081541   2.116751   1.841004   0.000000
     5  H    2.116753   1.081540   2.473935   3.083771   0.000000
     6  H    2.116751   1.081541   3.083770   2.473933   1.841002
                    6
     6  H    0.000000
 Stoichiometry    C2H4
 Framework group  C1[X(C2H4)]
 Deg. of freedom    12
 Full point group                 C1      NOp   1
 Largest Abelian subgroup         C1      NOp   1
 Largest concise Abelian subgroup C1      NOp   1
                         Standard orientation:                         
 ---------------------------------------------------------------------
 Center     Atomic      Atomic             Coordinates (Angstroms)
 Number     Number       Type             X           Y           Z
 ---------------------------------------------------------------------
      1          6           0        0.669158    0.000000    0.000000
      2          6           0       -0.669158    0.000000    0.000000
      3          1           0        1.236966   -0.920502   -0.000001
      4          1           0        1.236967    0.920502   -0.000001
      5          1           0       -1.236969   -0.920500   -0.000001
      6          1           0       -1.236966    0.920502   -0.000001
 ---------------------------------------------------------------------
 Rotational constants (GHZ):    147.9527474     29.8779475     24.8580507
 Standard basis: 6-31G(d,p) (6D, 7F)
 There are    50 symmetry adapted cartesian basis functions of A   symmetry.
 There are    50 symmetry adapted basis functions of A   symmetry.
    50 basis functions,    84 primitive gaussians,    50 cartesian basis functions
     8 alpha electrons        8 beta electrons
       nuclear repulsion energy        33.3230930734 Hartrees.
 NAtoms=    6 NActive=    6 NUniq=    6 SFac= 1.00D+00 NAtFMM=   60 NAOKFM=F Big=F
 Integral buffers will be    131072 words long.
 Raffenetti 1 integral format.
 Two-electron integral symmetry is turned on.
 One-electron integrals computed using PRISM.
 NBasis=    50 RedAO= T EigKep=  7.12D-03  NBF=    50
 NBsUse=    50 1.00D-06 EigRej= -1.00D+00 NBFU=    50
 Initial guess from the checkpoint file:  "/scr/Gau-18157.chk"
 B after Tr=     0.000000    0.000000    0.000000
         Rot=    1.000000    0.000000    0.000000    0.000000 Ang=   0.00 deg.
 ExpMin= 1.61D-01 ExpMax= 3.05D+03 ExpMxC= 4.57D+02 IAcc=1 IRadAn=         1 AccDes= 0.00D+00
 Harris functional with IExCor=  205 and IRadAn=       1 diagonalized for initial guess.
 HarFok:  IExCor=  205 AccDes= 0.00D+00 IRadAn=         1 IDoV= 1 UseB2=F ITyADJ=14
 ICtDFT=  3500011 ScaDFX=  1.000000  1.000000  1.000000  1.000000
 FoFCou: FMM=F IPFlag=           0 FMFlag=      100000 FMFlg1=           0
         NFxFlg=           0 DoJE=T BraDBF=F KetDBF=T FulRan=T
         wScrn=  0.000000 ICntrl=     500 IOpCl=  0 I1Cent=   200000004 NGrid=           0
         NMat0=    1 NMatS0=      1 NMatT0=    0 NMatD0=    1 NMtDS0=    0 NMtDT0=    0
 Petite list used in FoFCou.
 Keep R1 ints in memory in canonical form, NReq=1679770.
 Requested convergence on RMS density matrix=1.00D-08 within 128 cycles.
 Requested convergence on MAX density matrix=1.00D-06.
 Requested convergence on             energy=1.00D-06.
 No special actions if energy rises.
 SCF Done:  E(RHF) =  -78.0381492021     A.U. after    7 cycles
            NFock=  7  Conv=0.55D-08     -V/T= 2.0020
 ExpMin= 1.61D-01 ExpMax= 3.05D+03 ExpMxC= 4.57D+02 IAcc=3 IRadAn=         5 AccDes= 0.00D+00
 HarFok:  IExCor=  205 AccDes= 0.00D+00 IRadAn=         5 IDoV=-2 UseB2=F ITyADJ=14
 ICtDFT= 12500011 ScaDFX=  1.000000  1.000000  1.000000  1.000000
 Range of M.O.s used for correlation:     3    50
 NBasis=    50 NAE=     8 NBE=     8 NFC=     2 NFV=     0
 NROrb=     48 NOA=     6 NOB=     6 NVA=    42 NVB=    42
 Semi-Direct transformation.
 ModeAB=           2 MOrb=             6 LenV=      33351939
 LASXX=       297291 LTotXX=      297291 LenRXX=      297291
 LTotAB=      315756 MaxLAS=      367200 LenRXY=      367200
 NonZer=      594582 LenScr=     1571840 LnRSAI=           0
 LnScr1=           0 LExtra=           0 Total=      2236331
 MaxDsk=          -1 SrtSym=           F ITran=            4
 JobTyp=0 Pass  1:  I=   1 to   6.
 (rs|ai) integrals will be sorted in core.
 SymMOI:  orbitals are not symmetric.
 Spin components of T(2) and E(2):
     alpha-alpha T2 =       0.1042894830D-01 E2=     -0.2987227956D-01
     alpha-beta  T2 =       0.7620172066D-01 E2=     -0.2193717636D+00
     beta-beta   T2 =       0.1042894830D-01 E2=     -0.2987227956D-01
 ANorm=    0.1047406138D+01
 E2 =    -0.2791163227D+00 EUMP2 =    -0.78317265524803D+02
 Keep R2 and R3 ints in memory in canonical form, NReq=2448198.
 Iterations=  50 Convergence= 0.100D-07
 Iteration Nr.   1
 **********************
 DD1Dir will call FoFMem   1 times, MxPair=        42
 NAB=    21 NAA=     0 NBB=     0.
 MP4(R+Q)=  0.56818054D-02
 E3=       -0.23015737D-01        EUMP3=      -0.78340281262D+02
 E4(DQ)=   -0.19708524D-02        UMP4(DQ)=   -0.78342252114D+02
 E4(SDQ)=  -0.43507432D-02        UMP4(SDQ)=  -0.78344632005D+02
 DE(Corr)= -0.29632168     E(Corr)=     -78.334470877    
 NORM(A)=   0.10559809D+01
 Iteration Nr.   2
 **********************
 DD1Dir will call FoFMem   1 times, MxPair=        42
 NAB=    21 NAA=     0 NBB=     0.
 DE(Corr)= -0.30454671     E(CORR)=     -78.342695915     Delta=-8.23D-03
 NORM(A)=   0.10616624D+01
 Iteration Nr.   3
 **********************
 DD1Dir will call FoFMem   1 times, MxPair=        42
 NAB=    21 NAA=     0 NBB=     0.
 DE(Corr)= -0.30656101     E(CORR)=     -78.344710211     Delta=-2.01D-03
 NORM(A)=   0.10633144D+01
 Iteration Nr.   4
 **********************
 DD1Dir will call FoFMem   1 times, MxPair=        42
 NAB=    21 NAA=     0 NBB=     0.
 DE(Corr)= -0.30739536     E(CORR)=     -78.345544562     Delta=-8.34D-04
 NORM(A)=   0.10637485D+01
 Iteration Nr.   5
 **********************
 DD1Dir will call FoFMem   1 times, MxPair=        42
 NAB=    21 NAA=     0 NBB=     0.
 DE(Corr)= -0.30748634     E(CORR)=     -78.345635538     Delta=-9.10D-05
 NORM(A)=   0.10637787D+01
 Iteration Nr.   6
 **********************
 DD1Dir will call FoFMem   1 times, MxPair=        42
 NAB=    21 NAA=     0 NBB=     0.
 DE(Corr)= -0.30748847     E(CORR)=     -78.345637670     Delta=-2.13D-06
 NORM(A)=   0.10637789D+01
 Iteration Nr.   7
 **********************
 DD1Dir will call FoFMem   1 times, MxPair=        42
 NAB=    21 NAA=     0 NBB=     0.
 DE(Corr)= -0.30748811     E(CORR)=     -78.345637309     Delta= 3.61D-07
 NORM(A)=   0.10637809D+01
 Iteration Nr.   8
 **********************
 DD1Dir will call FoFMem   1 times, MxPair=        42
 NAB=    21 NAA=     0 NBB=     0.
 DE(Corr)= -0.30748811     E(CORR)=     -78.345637309     Delta=-6.75D-10
 NORM(A)=   0.10637807D+01
 Iteration Nr.   9
 **********************
 DD1Dir will call FoFMem   1 times, MxPair=        42
 NAB=    21 NAA=     0 NBB=     0.
 DE(Corr)= -0.30748823     E(CORR)=     -78.345637429     Delta=-1.19D-07
 NORM(A)=   0.10637809D+01
 Iteration Nr.  10
 **********************
 DD1Dir will call FoFMem   1 times, MxPair=        42
 NAB=    21 NAA=     0 NBB=     0.
 DE(Corr)= -0.30748824     E(CORR)=     -78.345637446     Delta=-1.68D-08
 NORM(A)=   0.10637809D+01
 Iteration Nr.  11
 **********************
 DD1Dir will call FoFMem   1 times, MxPair=        42
 NAB=    21 NAA=     0 NBB=     0.
 DE(Corr)= -0.30748826     E(CORR)=     -78.345637466     Delta=-2.00D-08
 NORM(A)=   0.10637809D+01
 Iteration Nr.  12
 **********************
 DD1Dir will call FoFMem   1 times, MxPair=        42
 NAB=    21 NAA=     0 NBB=     0.
 DE(Corr)= -0.30748827     E(CORR)=     -78.345637473     Delta=-7.05D-09
 NORM(A)=   0.10637809D+01
 Dominant configurations:
 ***********************
 Spin Case        I    J    A    B          Value
   ABAB           8    8    9    9      -0.146596D+00
 Largest amplitude= 1.47D-01

 Z-AMPLITUDE ITERATIONS

 Iteration Nr.   1
 **********************
 DD1Dir will call FoFMem   1 times, MxPair=        42
 NAB=    21 NAA=     0 NBB=     0.
 DE(Z)  -0.29868379D+00          E(Z)=    -0.78336832990D+02
 NORM(A)=   0.10637835D+01
 Iteration Nr.   2
 **********************
 DD1Dir will call FoFMem   1 times, MxPair=        42
 NAB=    21 NAA=     0 NBB=     0.
 DE(Z)  -0.29868445D+00          E(Z)=    -0.78336833656D+02
 NORM(A)=   0.10637788D+01
 Iteration Nr.   3
 **********************
 DD1Dir will call FoFMem   1 times, MxPair=        42
 NAB=    21 NAA=     0 NBB=     0.
 DE(Z)  -0.29868328D+00          E(Z)=    -0.78336832480D+02
 NORM(A)=   0.10637836D+01
 Iteration Nr.   4
 **********************
 DD1Dir will call FoFMem   1 times, MxPair=        42
 NAB=    21 NAA=     0 NBB=     0.
 DE(Z)  -0.29868442D+00          E(Z)=    -0.78336833624D+02
 NORM(A)=   0.10637855D+01
 Iteration Nr.   5
 **********************
 DD1Dir will call FoFMem   1 times, MxPair=        42
 NAB=    21 NAA=     0 NBB=     0.
 DE(Z)  -0.29868489D+00          E(Z)=    -0.78336834090D+02
 NORM(A)=   0.10590937D+01
 Iteration Nr.   6
 **********************
 DD1Dir will call FoFMem   1 times, MxPair=        42
 NAB=    21 NAA=     0 NBB=     0.
 DE(Z)  -0.29751301D+00          E(Z)=    -0.78335662212D+02
 NORM(A)=   0.10590883D+01
 Iteration Nr.   7
 **********************
 DD1Dir will call FoFMem   1 times, MxPair=        42
 NAB=    21 NAA=     0 NBB=     0.
 DE(Z)  -0.29751372D+00          E(Z)=    -0.78335662927D+02
 NORM(A)=   0.10590812D+01
 Iteration Nr.   8
 **********************
 DD1Dir will call FoFMem   1 times, MxPair=        42
 NAB=    21 NAA=     0 NBB=     0.
 DE(Z)  -0.29751357D+00          E(Z)=    -0.78335662767D+02
 NORM(A)=   0.10590797D+01
 Iteration Nr.   9
 **********************
 DD1Dir will call FoFMem   1 times, MxPair=        42
 NAB=    21 NAA=     0 NBB=     0.
 DE(Z)  -0.29751358D+00          E(Z)=    -0.78335662786D+02
 NORM(A)=   0.10590793D+01
 Iteration Nr.  10
 **********************
 DD1Dir will call FoFMem   1 times, MxPair=        42
 NAB=    21 NAA=     0 NBB=     0.
 DE(Z)  -0.29751351D+00          E(Z)=    -0.78335662707D+02
 NORM(A)=   0.10590793D+01
 Iteration Nr.  11
 **********************
 DD1Dir will call FoFMem   1 times, MxPair=        42
 NAB=    21 NAA=     0 NBB=     0.
 DE(Z)  -0.29751348D+00          E(Z)=    -0.78335662685D+02
 NORM(A)=   0.10590792D+01
 Iteration Nr.  12
 **********************
 DD1Dir will call FoFMem   1 times, MxPair=        42
 NAB=    21 NAA=     0 NBB=     0.
 DE(Z)  -0.29751348D+00          E(Z)=    -0.78335662678D+02
 NORM(A)=   0.10590792D+01
 Discarding MO integrals.
          IDoAtm=111111
          Differentiating once with respect to electric field.
                with respect to dipole field.
          Differentiating once with respect to nuclear coordinates.
 Keep R1 ints in memory in canonical form, NReq=1662452.
          There are     1 degrees of freedom in the 1st order CPHF.  IDoFFX=0 NUNeed=     1.
 LinEq1:  Iter=  0 NonCon=     1 RMS=5.28D-03 Max=7.83D-02 NDo=     1
 AX will form     1 AO Fock derivatives at one time.
 LinEq1:  Iter=  1 NonCon=     1 RMS=1.53D-03 Max=1.33D-02 NDo=     1
 LinEq1:  Iter=  2 NonCon=     1 RMS=2.58D-04 Max=2.57D-03 NDo=     1
 LinEq1:  Iter=  3 NonCon=     1 RMS=3.46D-05 Max=2.29D-04 NDo=     1
 LinEq1:  Iter=  4 NonCon=     1 RMS=3.37D-06 Max=2.34D-05 NDo=     1
 LinEq1:  Iter=  5 NonCon=     1 RMS=2.46D-07 Max=1.84D-06 NDo=     1
 LinEq1:  Iter=  6 NonCon=     1 RMS=2.02D-08 Max=1.34D-07 NDo=     1
 LinEq1:  Iter=  7 NonCon=     1 RMS=1.30D-09 Max=9.75D-09 NDo=     1
 LinEq1:  Iter=  8 NonCon=     0 RMS=8.23D-11 Max=4.14D-10 NDo=     1
 Linear equations converged to 1.000D-10 1.000D-09 after     8 iterations.
 End of Minotr F.D. properties file   721 does not exist.
 End of Minotr F.D. properties file   722 does not exist.
 End of Minotr F.D. properties file   788 does not exist.
 Calling FoFJK, ICntrl=  10002127 FMM=F ISym2X=0 I1Cent= 0 IOpClX= 0 NMat=1 NMatS=1 NMatT=0.
 ***** Axes restored to original set *****
 -------------------------------------------------------------------
 Center     Atomic                   Forces (Hartrees/Bohr)
 Number     Number              X              Y              Z
 -------------------------------------------------------------------
      1        6           0.002482569    0.000687240   -0.000967839
      2        6          -0.002482198   -0.000686784    0.000967574
      3        1          -0.000076201   -0.000157142    0.000198298
      4        1          -0.000244424    0.000068277   -0.000073307
      5        1           0.000244311   -0.000068609    0.000073544
      6        1           0.000075943    0.000157018   -0.000198270
 -------------------------------------------------------------------
 Cartesian Forces:  Max     0.002482569 RMS     0.000925577

 GradGradGradGradGradGradGradGradGradGradGradGradGradGradGradGradGradGrad
 Berny optimization.
 Using GEDIIS/GDIIS optimizer.
 FormGI is forming the generalized inverse of G from B-inverse, IUseBI=4.
 Internal  Forces:  Max     0.002396341 RMS     0.000633786
 Search for a local minimum.
 Step number   2 out of a maximum of   25
 All quantities printed in internal units (Hartrees-Bohrs-Radians)
 Mixed Optimization -- En-DIIS/RFO-DIIS
 Update second derivatives using D2CorX and points    1    2
 DE= -3.33D-04 DEPred=-3.71D-04 R= 8.97D-01
 TightC=F SS=  1.41D+00  RLast= 4.64D-02 DXNew= 5.0454D-01 1.3924D-01
 Trust test= 8.97D-01 RLast= 4.64D-02 DXMaxT set to 3.00D-01
 The second derivative matrix:
                          R1        R2        R3        R4        R5
           R1           0.67981
           R2          -0.01015   0.35218
           R3          -0.01015   0.00087   0.35219
           R4          -0.01015   0.00087   0.00087   0.35218
           R5          -0.01015   0.00087   0.00087   0.00087   0.35218
           A1           0.00099   0.00032   0.00031   0.00031   0.00032
           A2           0.00100   0.00031   0.00031   0.00031   0.00031
           A3          -0.00199  -0.00063  -0.00063  -0.00063  -0.00063
           A4           0.00100   0.00031   0.00031   0.00031   0.00031
           A5           0.00100   0.00031   0.00031   0.00031   0.00031
           A6          -0.00200  -0.00063  -0.00063  -0.00063  -0.00063
           D1           0.00000   0.00000   0.00000   0.00000   0.00000
           D2           0.00000   0.00000   0.00000   0.00000   0.00000
           D3           0.00000   0.00000   0.00000   0.00000   0.00000
           D4           0.00000   0.00000   0.00000   0.00000   0.00000
                          A1        A2        A3        A4        A5
           A1           0.15965
           A2          -0.00035   0.15965
           A3           0.00070   0.00070   0.15859
           A4          -0.00035  -0.00035   0.00070   0.15965
           A5          -0.00035  -0.00035   0.00070  -0.00035   0.15965
           A6           0.00070   0.00070  -0.00141   0.00070   0.00070
           D1           0.00000   0.00000   0.00000   0.00000   0.00000
           D2           0.00000   0.00000   0.00000   0.00000   0.00000
           D3           0.00000   0.00000   0.00000   0.00000   0.00000
           D4           0.00000   0.00000   0.00000   0.00000   0.00000
                          A6        D1        D2        D3        D4
           A6           0.15860
           D1           0.00000   0.03087
           D2           0.00000   0.00000   0.03087
           D3           0.00000   0.00000   0.00000   0.03087
           D4           0.00000   0.00000   0.00000   0.00000   0.03087
 ITU=  1  0
 Use linear search instead of GDIIS.
     Eigenvalues ---    0.03087   0.03087   0.03087   0.15573   0.16000
     Eigenvalues ---    0.16000   0.16000   0.35131   0.35131   0.35131
     Eigenvalues ---    0.35356   0.68110
 RFO step:  Lambda=-2.95492796D-06 EMin= 3.08716499D-02
 Quartic linear search produced a step of -0.08788.
 Iteration  1 RMS(Cart)=  0.00086466 RMS(Int)=  0.00000006
 Iteration  2 RMS(Cart)=  0.00000007 RMS(Int)=  0.00000000
 Variable       Old X    -DE/DX   Delta X   Delta X   Delta X     New X
                                 (Linear)    (Quad)   (Total)
    R1        2.52905  -0.00240  -0.00229  -0.00122  -0.00351   2.52554
    R2        2.04382   0.00026   0.00095  -0.00030   0.00065   2.04446
    R3        2.04382   0.00026   0.00095  -0.00030   0.00065   2.04446
    R4        2.04382   0.00026   0.00095  -0.00030   0.00065   2.04446
    R5        2.04382   0.00026   0.00095  -0.00031   0.00065   2.04446
    A1        2.12351   0.00003  -0.00081   0.00100   0.00020   2.12371
    A2        2.12351   0.00003  -0.00081   0.00100   0.00020   2.12371
    A3        2.03616  -0.00007   0.00161  -0.00201  -0.00040   2.03577
    A4        2.12351   0.00003  -0.00080   0.00100   0.00020   2.12371
    A5        2.12351   0.00003  -0.00081   0.00100   0.00020   2.12371
    A6        2.03616  -0.00007   0.00161  -0.00200  -0.00039   2.03577
    D1        0.00000   0.00000   0.00000   0.00000   0.00000   0.00000
    D2       -3.14159   0.00000   0.00000   0.00000   0.00000   3.14159
    D3        3.14159   0.00000   0.00000   0.00000   0.00000  -3.14159
    D4        0.00000   0.00000   0.00000   0.00000   0.00000   0.00000
         Item               Value     Threshold  Converged?
 Maximum Force            0.002396     0.000450     NO 
 RMS     Force            0.000634     0.000300     NO 
 Maximum Displacement     0.001584     0.001800     YES
 RMS     Displacement     0.000865     0.001200     YES
 Predicted change in Energy=-4.554483D-06
 GradGradGradGradGradGradGradGradGradGradGradGradGradGradGradGradGradGrad

                          Input orientation:                          
 ---------------------------------------------------------------------
 Center     Atomic      Atomic             Coordinates (Angstroms)
 Number     Number       Type             X           Y           Z
 ---------------------------------------------------------------------
      1          6           0       -0.751241   -1.174042    1.559929
      2          6           0        0.454444   -0.840258    1.089788
      3          1           0       -0.867532   -1.846707    2.399255
      4          1           0       -1.660099   -0.785180    1.120347
      5          1           0        1.363303   -1.229119    1.529369
      6          1           0        0.570735   -0.167594    0.250462
 ---------------------------------------------------------------------
                    Distance matrix (angstroms):
                    1          2          3          4          5
     1  C    0.000000
     2  C    1.336459   0.000000
     3  H    1.081882   2.115482   0.000000
     4  H    1.081882   2.115481   1.841360   0.000000
     5  H    2.115482   1.081882   2.472800   3.083074   0.000000
     6  H    2.115482   1.081882   3.083074   2.472799   1.841360
                    6
     6  H    0.000000
 Stoichiometry    C2H4
 Framework group  C1[X(C2H4)]
 Deg. of freedom    12
 Full point group                 C1      NOp   1
 Largest Abelian subgroup         C1      NOp   1
 Largest concise Abelian subgroup C1      NOp   1
                         Standard orientation:                         
 ---------------------------------------------------------------------
 Center     Atomic      Atomic             Coordinates (Angstroms)
 Number     Number       Type             X           Y           Z
 ---------------------------------------------------------------------
      1          6           0        0.668229    0.000000    0.000000
      2          6           0       -0.668229    0.000000    0.000000
      3          1           0        1.236400   -0.920680    0.000000
      4          1           0        1.236399    0.920680    0.000000
      5          1           0       -1.236400   -0.920680    0.000000
      6          1           0       -1.236400    0.920680    0.000000
 ---------------------------------------------------------------------
 Rotational constants (GHZ):    147.8954035     29.9407302     24.8998686
 Standard basis: 6-31G(d,p) (6D, 7F)
 There are    50 symmetry adapted cartesian basis functions of A   symmetry.
 There are    50 symmetry adapted basis functions of A   symmetry.
    50 basis functions,    84 primitive gaussians,    50 cartesian basis functions
     8 alpha electrons        8 beta electrons
       nuclear repulsion energy        33.3429328143 Hartrees.
 NAtoms=    6 NActive=    6 NUniq=    6 SFac= 1.00D+00 NAtFMM=   60 NAOKFM=F Big=F
 Integral buffers will be    131072 words long.
 Raffenetti 1 integral format.
 Two-electron integral symmetry is turned on.
 One-electron integrals computed using PRISM.
 NBasis=    50 RedAO= T EigKep=  7.07D-03  NBF=    50
 NBsUse=    50 1.00D-06 EigRej= -1.00D+00 NBFU=    50
 Initial guess from the checkpoint file:  "/scr/Gau-18157.chk"
 B after Tr=     0.000000    0.000000    0.000000
         Rot=    1.000000    0.000000    0.000000    0.000000 Ang=   0.00 deg.
 Keep R1 ints in memory in canonical form, NReq=1679770.
 Requested convergence on RMS density matrix=1.00D-08 within 128 cycles.
 Requested convergence on MAX density matrix=1.00D-06.
 Requested convergence on             energy=1.00D-06.
 No special actions if energy rises.
 SCF Done:  E(RHF) =  -78.0382361194     A.U. after    7 cycles
            NFock=  7  Conv=0.73D-09     -V/T= 2.0019
 ExpMin= 1.61D-01 ExpMax= 3.05D+03 ExpMxC= 4.57D+02 IAcc=3 IRadAn=         5 AccDes= 0.00D+00
 HarFok:  IExCor=  205 AccDes= 0.00D+00 IRadAn=         5 IDoV=-2 UseB2=F ITyADJ=14
 ICtDFT= 12500011 ScaDFX=  1.000000  1.000000  1.000000  1.000000
 Range of M.O.s used for correlation:     3    50
 NBasis=    50 NAE=     8 NBE=     8 NFC=     2 NFV=     0
 NROrb=     48 NOA=     6 NOB=     6 NVA=    42 NVB=    42
 Semi-Direct transformation.
 ModeAB=           2 MOrb=             6 LenV=      33351939
 LASXX=       297291 LTotXX=      297291 LenRXX=      297291
 LTotAB=      315756 MaxLAS=      367200 LenRXY=      367200
 NonZer=      594582 LenScr=     1571840 LnRSAI=           0
 LnScr1=           0 LExtra=           0 Total=      2236331
 MaxDsk=          -1 SrtSym=           F ITran=            4
 JobTyp=0 Pass  1:  I=   1 to   6.
 (rs|ai) integrals will be sorted in core.
 SymMOI:  orbitals are not symmetric.
 Spin components of T(2) and E(2):
     alpha-alpha T2 =       0.1041929722D-01 E2=     -0.2986555803D-01
     alpha-beta  T2 =       0.7611790313D-01 E2=     -0.2193058457D+00
     beta-beta   T2 =       0.1041929722D-01 E2=     -0.2986555803D-01
 ANorm=    0.1047356910D+01
 E2 =    -0.2790369618D+00 EUMP2 =    -0.78317273081156D+02
 Keep R2 and R3 ints in memory in canonical form, NReq=2448198.
 Iterations=  50 Convergence= 0.100D-07
 Iteration Nr.   1
 **********************
 DD1Dir will call FoFMem   1 times, MxPair=        42
 NAB=    21 NAA=     0 NBB=     0.
 MP4(R+Q)=  0.56733238D-02
 E3=       -0.23025942D-01        EUMP3=      -0.78340299023D+02
 E4(DQ)=   -0.19689287D-02        UMP4(DQ)=   -0.78342267952D+02
 E4(SDQ)=  -0.43392512D-02        UMP4(SDQ)=  -0.78344638274D+02
 DE(Corr)= -0.29626156     E(Corr)=     -78.334497675    
 NORM(A)=   0.10559297D+01
 Iteration Nr.   2
 **********************
 DD1Dir will call FoFMem   1 times, MxPair=        42
 NAB=    21 NAA=     0 NBB=     0.
 DE(Corr)= -0.30447129     E(CORR)=     -78.342707411     Delta=-8.21D-03
 NORM(A)=   0.10615910D+01
 Iteration Nr.   3
 **********************
 DD1Dir will call FoFMem   1 times, MxPair=        42
 NAB=    21 NAA=     0 NBB=     0.
 DE(Corr)= -0.30648373     E(CORR)=     -78.344719848     Delta=-2.01D-03
 NORM(A)=   0.10632323D+01
 Iteration Nr.   4
 **********************
 DD1Dir will call FoFMem   1 times, MxPair=        42
 NAB=    21 NAA=     0 NBB=     0.
 DE(Corr)= -0.30731405     E(CORR)=     -78.345550166     Delta=-8.30D-04
 NORM(A)=   0.10636625D+01
 Iteration Nr.   5
 **********************
 DD1Dir will call FoFMem   1 times, MxPair=        42
 NAB=    21 NAA=     0 NBB=     0.
 DE(Corr)= -0.30740443     E(CORR)=     -78.345640545     Delta=-9.04D-05
 NORM(A)=   0.10636925D+01
 Iteration Nr.   6
 **********************
 DD1Dir will call FoFMem   1 times, MxPair=        42
 NAB=    21 NAA=     0 NBB=     0.
 DE(Corr)= -0.30740656     E(CORR)=     -78.345642682     Delta=-2.14D-06
 NORM(A)=   0.10636928D+01
 Iteration Nr.   7
 **********************
 DD1Dir will call FoFMem   1 times, MxPair=        42
 NAB=    21 NAA=     0 NBB=     0.
 DE(Corr)= -0.30740620     E(CORR)=     -78.345642319     Delta= 3.62D-07
 NORM(A)=   0.10636947D+01
 Iteration Nr.   8
 **********************
 DD1Dir will call FoFMem   1 times, MxPair=        42
 NAB=    21 NAA=     0 NBB=     0.
 DE(Corr)= -0.30740620     E(CORR)=     -78.345642320     Delta=-1.17D-09
 NORM(A)=   0.10636946D+01
 Iteration Nr.   9
 **********************
 DD1Dir will call FoFMem   1 times, MxPair=        42
 NAB=    21 NAA=     0 NBB=     0.
 DE(Corr)= -0.30740632     E(CORR)=     -78.345642439     Delta=-1.19D-07
 NORM(A)=   0.10636947D+01
 Iteration Nr.  10
 **********************
 DD1Dir will call FoFMem   1 times, MxPair=        42
 NAB=    21 NAA=     0 NBB=     0.
 DE(Corr)= -0.30740634     E(CORR)=     -78.345642456     Delta=-1.69D-08
 NORM(A)=   0.10636947D+01
 Iteration Nr.  11
 **********************
 DD1Dir will call FoFMem   1 times, MxPair=        42
 NAB=    21 NAA=     0 NBB=     0.
 DE(Corr)= -0.30740636     E(CORR)=     -78.345642476     Delta=-1.99D-08
 NORM(A)=   0.10636947D+01
 Iteration Nr.  12
 **********************
 DD1Dir will call FoFMem   1 times, MxPair=        42
 NAB=    21 NAA=     0 NBB=     0.
 DE(Corr)= -0.30740636     E(CORR)=     -78.345642483     Delta=-7.07D-09
 NORM(A)=   0.10636947D+01
 Dominant configurations:
 ***********************
 Spin Case        I    J    A    B          Value
   ABAB           8    8    9    9      -0.146120D+00
 Largest amplitude= 1.46D-01

 Z-AMPLITUDE ITERATIONS

 Iteration Nr.   1
 **********************
 DD1Dir will call FoFMem   1 times, MxPair=        42
 NAB=    21 NAA=     0 NBB=     0.
 DE(Z)  -0.29862241D+00          E(Z)=    -0.78336858528D+02
 NORM(A)=   0.10637020D+01
 Iteration Nr.   2
 **********************
 DD1Dir will call FoFMem   1 times, MxPair=        42
 NAB=    21 NAA=     0 NBB=     0.
 DE(Z)  -0.29862427D+00          E(Z)=    -0.78336860391D+02
 NORM(A)=   0.10635601D+01
 Iteration Nr.   3
 **********************
 DD1Dir will call FoFMem   1 times, MxPair=        42
 NAB=    21 NAA=     0 NBB=     0.
 DE(Z)  -0.29859033D+00          E(Z)=    -0.78336826453D+02
 NORM(A)=   0.10636865D+01
 Iteration Nr.   4
 **********************
 DD1Dir will call FoFMem   1 times, MxPair=        42
 NAB=    21 NAA=     0 NBB=     0.
 DE(Z)  -0.29862044D+00          E(Z)=    -0.78336856563D+02
 NORM(A)=   0.10636465D+01
 Iteration Nr.   5
 **********************
 DD1Dir will call FoFMem   1 times, MxPair=        42
 NAB=    21 NAA=     0 NBB=     0.
 DE(Z)  -0.29861087D+00          E(Z)=    -0.78336846991D+02
 NORM(A)=   0.10590125D+01
 Iteration Nr.   6
 **********************
 DD1Dir will call FoFMem   1 times, MxPair=        42
 NAB=    21 NAA=     0 NBB=     0.
 DE(Z)  -0.29745416D+00          E(Z)=    -0.78335690277D+02
 NORM(A)=   0.10590126D+01
 Iteration Nr.   7
 **********************
 DD1Dir will call FoFMem   1 times, MxPair=        42
 NAB=    21 NAA=     0 NBB=     0.
 DE(Z)  -0.29745422D+00          E(Z)=    -0.78335690341D+02
 NORM(A)=   0.10590121D+01
 Iteration Nr.   8
 **********************
 DD1Dir will call FoFMem   1 times, MxPair=        42
 NAB=    21 NAA=     0 NBB=     0.
 DE(Z)  -0.29745414D+00          E(Z)=    -0.78335690257D+02
 NORM(A)=   0.10590121D+01
 Iteration Nr.   9
 **********************
 DD1Dir will call FoFMem   1 times, MxPair=        42
 NAB=    21 NAA=     0 NBB=     0.
 DE(Z)  -0.29745411D+00          E(Z)=    -0.78335690231D+02
 NORM(A)=   0.10590120D+01
 Iteration Nr.  10
 **********************
 DD1Dir will call FoFMem   1 times, MxPair=        42
 NAB=    21 NAA=     0 NBB=     0.
 DE(Z)  -0.29745411D+00          E(Z)=    -0.78335690226D+02
 NORM(A)=   0.10590120D+01
 Discarding MO integrals.
          IDoAtm=111111
          Differentiating once with respect to electric field.
                with respect to dipole field.
          Differentiating once with respect to nuclear coordinates.
 Keep R1 ints in memory in canonical form, NReq=1662452.
          There are     1 degrees of freedom in the 1st order CPHF.  IDoFFX=0 NUNeed=     1.
 LinEq1:  Iter=  0 NonCon=     1 RMS=5.27D-03 Max=7.80D-02 NDo=     1
 AX will form     1 AO Fock derivatives at one time.
 LinEq1:  Iter=  1 NonCon=     1 RMS=1.53D-03 Max=1.32D-02 NDo=     1
 LinEq1:  Iter=  2 NonCon=     1 RMS=2.58D-04 Max=2.57D-03 NDo=     1
 LinEq1:  Iter=  3 NonCon=     1 RMS=3.46D-05 Max=2.29D-04 NDo=     1
 LinEq1:  Iter=  4 NonCon=     1 RMS=3.36D-06 Max=2.33D-05 NDo=     1
 LinEq1:  Iter=  5 NonCon=     1 RMS=2.46D-07 Max=1.85D-06 NDo=     1
 LinEq1:  Iter=  6 NonCon=     1 RMS=2.02D-08 Max=1.34D-07 NDo=     1
 LinEq1:  Iter=  7 NonCon=     1 RMS=1.30D-09 Max=9.70D-09 NDo=     1
 LinEq1:  Iter=  8 NonCon=     0 RMS=8.12D-11 Max=4.10D-10 NDo=     1
 Linear equations converged to 1.000D-10 1.000D-09 after     8 iterations.
 End of Minotr F.D. properties file   721 does not exist.
 End of Minotr F.D. properties file   722 does not exist.
 End of Minotr F.D. properties file   788 does not exist.
 Calling FoFJK, ICntrl=  10002127 FMM=F ISym2X=0 I1Cent= 0 IOpClX= 0 NMat=1 NMatS=1 NMatT=0.
 ***** Axes restored to original set *****
 -------------------------------------------------------------------
 Center     Atomic                   Forces (Hartrees/Bohr)
 Number     Number              X              Y              Z
 -------------------------------------------------------------------
      1        6           0.000310217    0.000085818   -0.000120960
      2        6          -0.000310026   -0.000085799    0.000120783
      3        1          -0.000077084   -0.000015551    0.000022916
      4        1          -0.000069963   -0.000025115    0.000034443
      5        1           0.000069865    0.000025085   -0.000034326
      6        1           0.000076992    0.000015561   -0.000022856
 -------------------------------------------------------------------
 Cartesian Forces:  Max     0.000310217 RMS     0.000120899

 GradGradGradGradGradGradGradGradGradGradGradGradGradGradGradGradGradGrad
 Berny optimization.
 Using GEDIIS/GDIIS optimizer.
 FormGI is forming the generalized inverse of G from B-inverse, IUseBI=4.
 Internal  Forces:  Max     0.000180853 RMS     0.000067351
 Search for a local minimum.
 Step number   3 out of a maximum of   25
 All quantities printed in internal units (Hartrees-Bohrs-Radians)
 Mixed Optimization -- En-DIIS/RFO-DIIS
 Swapping is turned off.
 Update second derivatives using D2CorX and points    1    2    3
 DE= -5.01D-06 DEPred=-4.55D-06 R= 1.10D+00
 TightC=F SS=  1.41D+00  RLast= 3.80D-03 DXNew= 5.0454D-01 1.1408D-02
 Trust test= 1.10D+00 RLast= 3.80D-03 DXMaxT set to 3.00D-01
 The second derivative matrix:
                          R1        R2        R3        R4        R5
           R1           0.63964
           R2          -0.00026   0.35064
           R3          -0.00025  -0.00066   0.35065
           R4          -0.00026  -0.00066  -0.00066   0.35065
           R5          -0.00026  -0.00066  -0.00066  -0.00066   0.35065
           A1           0.01286  -0.00086  -0.00086  -0.00086  -0.00086
           A2           0.01287  -0.00086  -0.00086  -0.00087  -0.00086
           A3          -0.02574   0.00173   0.00173   0.00173   0.00173
           A4           0.01284  -0.00086  -0.00086  -0.00086  -0.00086
           A5           0.01286  -0.00086  -0.00086  -0.00086  -0.00086
           A6          -0.02570   0.00173   0.00173   0.00173   0.00172
           D1           0.00000   0.00000   0.00000   0.00000   0.00000
           D2           0.00001   0.00000   0.00000   0.00000   0.00000
           D3          -0.00001   0.00000   0.00000   0.00000   0.00000
           D4           0.00000   0.00000   0.00000   0.00000   0.00000
                          A1        A2        A3        A4        A5
           A1           0.15938
           A2          -0.00062   0.15939
           A3           0.00123   0.00123   0.15754
           A4          -0.00061  -0.00061   0.00122   0.15939
           A5          -0.00062  -0.00061   0.00123  -0.00061   0.15938
           A6           0.00123   0.00123  -0.00245   0.00122   0.00123
           D1           0.00000   0.00000   0.00000   0.00000   0.00000
           D2           0.00000   0.00000   0.00000   0.00000   0.00000
           D3           0.00000   0.00000   0.00000   0.00000   0.00000
           D4           0.00000   0.00000   0.00000   0.00000   0.00000
                          A6        D1        D2        D3        D4
           A6           0.15755
           D1           0.00000   0.03087
           D2           0.00000   0.00000   0.03087
           D3           0.00000   0.00000   0.00000   0.03087
           D4           0.00000   0.00000   0.00000   0.00000   0.03087
 ITU=  1  1  0
     Eigenvalues ---    0.03087   0.03087   0.03087   0.14842   0.16000
     Eigenvalues ---    0.16000   0.16000   0.34883   0.35131   0.35131
     Eigenvalues ---    0.35131   0.64368
 En-DIIS/RFO-DIIS IScMMF=        0 using points:     3    2
 RFO step:  Lambda=-1.36196978D-07.
 DidBck=F Rises=F RFO-DIIS coefs:    1.10178   -0.10178
 Iteration  1 RMS(Cart)=  0.00030905 RMS(Int)=  0.00000007
 Iteration  2 RMS(Cart)=  0.00000007 RMS(Int)=  0.00000000
 Variable       Old X    -DE/DX   Delta X   Delta X   Delta X     New X
                                 (Linear)    (Quad)   (Total)
    R1        2.52554  -0.00018  -0.00036  -0.00001  -0.00037   2.52517
    R2        2.04446   0.00004   0.00007   0.00005   0.00011   2.04457
    R3        2.04446   0.00004   0.00007   0.00005   0.00011   2.04457
    R4        2.04446   0.00004   0.00007   0.00005   0.00011   2.04457
    R5        2.04446   0.00004   0.00007   0.00005   0.00011   2.04457
    A1        2.12371   0.00005   0.00002   0.00034   0.00036   2.12407
    A2        2.12371   0.00005   0.00002   0.00034   0.00036   2.12407
    A3        2.03577  -0.00010  -0.00004  -0.00069  -0.00073   2.03504
    A4        2.12371   0.00005   0.00002   0.00034   0.00036   2.12407
    A5        2.12371   0.00005   0.00002   0.00034   0.00036   2.12407
    A6        2.03577  -0.00010  -0.00004  -0.00068  -0.00072   2.03504
    D1        0.00000   0.00000   0.00000   0.00000   0.00000   0.00000
    D2        3.14159   0.00000   0.00000   0.00000   0.00000  -3.14159
    D3       -3.14159   0.00000   0.00000   0.00000   0.00000   3.14159
    D4        0.00000   0.00000   0.00000   0.00000   0.00000   0.00000
         Item               Value     Threshold  Converged?
 Maximum Force            0.000181     0.000450     YES
 RMS     Force            0.000067     0.000300     YES
 Maximum Displacement     0.000582     0.001800     YES
 RMS     Displacement     0.000309     0.001200     YES
 Predicted change in Energy=-1.507133D-07
 Optimization completed.
    -- Stationary point found.
                           ----------------------------
                           !   Optimized Parameters   !
                           ! (Angstroms and Degrees)  !
 --------------------------                            --------------------------
 ! Name  Definition              Value          Derivative Info.                !
 --------------------------------------------------------------------------------
 ! R1    R(1,2)                  1.3365         -DE/DX =   -0.0002              !
 ! R2    R(1,3)                  1.0819         -DE/DX =    0.0                 !
 ! R3    R(1,4)                  1.0819         -DE/DX =    0.0                 !
 ! R4    R(2,5)                  1.0819         -DE/DX =    0.0                 !
 ! R5    R(2,6)                  1.0819         -DE/DX =    0.0                 !
 ! A1    A(2,1,3)              121.6796         -DE/DX =    0.0001              !
 ! A2    A(2,1,4)              121.6796         -DE/DX =    0.0001              !
 ! A3    A(3,1,4)              116.6409         -DE/DX =   -0.0001              !
 ! A4    A(1,2,5)              121.6796         -DE/DX =    0.0001              !
 ! A5    A(1,2,6)              121.6796         -DE/DX =    0.0001              !
 ! A6    A(5,2,6)              116.6408         -DE/DX =   -0.0001              !
 ! D1    D(3,1,2,5)              0.0            -DE/DX =    0.0                 !
 ! D2    D(3,1,2,6)           -180.0            -DE/DX =    0.0                 !
 ! D3    D(4,1,2,5)            180.0            -DE/DX =    0.0                 !
 ! D4    D(4,1,2,6)              0.0            -DE/DX =    0.0                 !
 --------------------------------------------------------------------------------
 GradGradGradGradGradGradGradGradGradGradGradGradGradGradGradGradGradGrad

                          Input orientation:                          
 ---------------------------------------------------------------------
 Center     Atomic      Atomic             Coordinates (Angstroms)
 Number     Number       Type             X           Y           Z
 ---------------------------------------------------------------------
      1          6           0       -0.751241   -1.174042    1.559929
      2          6           0        0.454444   -0.840258    1.089788
      3          1           0       -0.867532   -1.846707    2.399255
      4          1           0       -1.660099   -0.785180    1.120347
      5          1           0        1.363303   -1.229119    1.529369
      6          1           0        0.570735   -0.167594    0.250462
 ---------------------------------------------------------------------
                    Distance matrix (angstroms):
                    1          2          3          4          5
     1  C    0.000000
     2  C    1.336459   0.000000
     3  H    1.081882   2.115482   0.000000
     4  H    1.081882   2.115481   1.841360   0.000000
     5  H    2.115482   1.081882   2.472800   3.083074   0.000000
     6  H    2.115482   1.081882   3.083074   2.472799   1.841360
                    6
     6  H    0.000000
 Stoichiometry    C2H4
 Framework group  C1[X(C2H4)]
 Deg. of freedom    12
 Full point group                 C1      NOp   1
 Largest Abelian subgroup         C1      NOp   1
 Largest concise Abelian subgroup C1      NOp   1
                         Standard orientation:                         
 ---------------------------------------------------------------------
 Center     Atomic      Atomic             Coordinates (Angstroms)
 Number     Number       Type             X           Y           Z
 ---------------------------------------------------------------------
      1          6           0        0.668229    0.000000    0.000000
      2          6           0       -0.668229    0.000000    0.000000
      3          1           0        1.236400   -0.920680    0.000000
      4          1           0        1.236399    0.920680    0.000000
      5          1           0       -1.236400   -0.920680    0.000000
      6          1           0       -1.236400    0.920680    0.000000
 ---------------------------------------------------------------------
 Rotational constants (GHZ):    147.8954035     29.9407302     24.8998686

 **********************************************************************

            Population analysis using the SCF density.

 **********************************************************************

 Orbital symmetries:
       Occupied  (A) (A) (A) (A) (A) (A) (A) (A)
       Virtual   (A) (A) (A) (A) (A) (A) (A) (A) (A) (A) (A) (A)
                 (A) (A) (A) (A) (A) (A) (A) (A) (A) (A) (A) (A)
                 (A) (A) (A) (A) (A) (A) (A) (A) (A) (A) (A) (A)
                 (A) (A) (A) (A) (A) (A)
 The electronic state is 1-A.
 Alpha  occ. eigenvalues --  -11.22927 -11.22764  -1.02650  -0.78872  -0.63601
 Alpha  occ. eigenvalues --   -0.58102  -0.50201  -0.36989
 Alpha virt. eigenvalues --    0.17789   0.26498   0.29265   0.30806   0.39004
 Alpha virt. eigenvalues --    0.49099   0.66241   0.76081   0.77626   0.85134
 Alpha virt. eigenvalues --    0.88958   0.95099   1.08470   1.11836   1.17453
 Alpha virt. eigenvalues --    1.18254   1.32839   1.44150   1.65237   1.66257
 Alpha virt. eigenvalues --    1.80808   2.14424   2.20579   2.25375   2.34736
 Alpha virt. eigenvalues --    2.35263   2.43512   2.52348   2.68218   2.77001
 Alpha virt. eigenvalues --    2.84294   2.95130   3.01402   3.03046   3.09501
 Alpha virt. eigenvalues --    3.37412   3.54025   3.72225   3.86016   4.15531
 Alpha virt. eigenvalues --    4.59820   4.91034
          Condensed to atoms (all electrons):
               1          2          3          4          5          6
     1  C    4.880587   0.639409   0.408065   0.408065  -0.039622  -0.039622
     2  C    0.639409   4.880587  -0.039622  -0.039622   0.408065   0.408065
     3  H    0.408065  -0.039622   0.535682  -0.031450  -0.004219   0.003103
     4  H    0.408065  -0.039622  -0.031450   0.535682   0.003103  -0.004219
     5  H   -0.039622   0.408065  -0.004219   0.003103   0.535682  -0.031450
     6  H   -0.039622   0.408065   0.003103  -0.004219  -0.031450   0.535682
 Mulliken charges:
               1
     1  C   -0.256882
     2  C   -0.256882
     3  H    0.128441
     4  H    0.128441
     5  H    0.128441
     6  H    0.128441
 Sum of Mulliken charges =   0.00000
 Mulliken charges with hydrogens summed into heavy atoms:
               1
     1  C    0.000000
     2  C    0.000000
 Electronic spatial extent (au):  <R**2>=             82.5647
 Charge=              0.0000 electrons
 Dipole moment (field-independent basis, Debye):
    X=              0.0000    Y=              0.0000    Z=              0.0000  Tot=              0.0000
 Quadrupole moment (field-independent basis, Debye-Ang):
   XX=            -11.9885   YY=            -12.2312   ZZ=            -15.4392
   XY=              0.0000   XZ=              0.0000   YZ=              0.0000
 Traceless Quadrupole moment (field-independent basis, Debye-Ang):
   XX=              1.2311   YY=              0.9885   ZZ=             -2.2196
   XY=              0.0000   XZ=              0.0000   YZ=              0.0000
 Octapole moment (field-independent basis, Debye-Ang**2):
  XXX=              0.0000  YYY=              0.0000  ZZZ=              0.0000  XYY=              0.0000
  XXY=              0.0000  XXZ=              0.0000  XZZ=              0.0000  YZZ=              0.0000
  YYZ=              0.0000  XYZ=              0.0000
 Hexadecapole moment (field-independent basis, Debye-Ang**3):
 XXXX=            -66.8476 YYYY=            -26.0165 ZZZZ=            -16.5522 XXXY=              0.0000
 XXXZ=              0.0000 YYYX=              0.0000 YYYZ=              0.0000 ZZZX=              0.0000
 ZZZY=              0.0000 XXYY=            -12.9179 XXZZ=            -14.9145 YYZZ=             -7.7691
 XXYZ=              0.0000 YYXZ=              0.0000 ZZXY=              0.0000
 N-N= 3.334293281428D+01 E-N=-2.479267809198D+02  KE= 7.788657115435D+01
 1\1\GINC-N0297\FOpt\RCCSD-FC\6-31G(d,p)\C2H4\TAIYUPAN\24-Feb-2017\0\\#
 n CCSD/6-31G(d,p) Opt\\Title\\0,1\C,-0.7512412049,-1.1740415866,1.5599
 29351\C,0.4544442145,-0.8402582679,1.0897879496\H,-0.8675318135,-1.846
 7066776,2.3992548889\H,-1.6600993461,-0.7851803266,1.1203466811\H,1.36
 33031223,-1.2291194447,1.5293692365\H,0.5707350277,-0.1675936966,0.250
 4618928\\Version=ES64L-G09RevE.01\State=1-A\HF=-78.0382361\MP2=-78.317
 2731\MP3=-78.340299\MP4D=-78.3479413\MP4DQ=-78.342268\MP4SDQ=-78.34463
 83\CCSD=-78.3456425\RMSD=7.312e-10\RMSF=1.209e-04\Dipole=0.,-0.0000003
 ,-0.0000003\PG=C01 [X(C2H4)]\\@


 TRUTH, IN SCIENCE, CAN BE DEFINED AS THE WORKING HYPOTHESIS 
 BEST FITTED TO OPEN THE WAY TO THE NEXT BETTER ONE.

                              -- KONRAD LORENZ
 Job cpu time:       0 days  0 hours  5 minutes 24.0 seconds.
 File lengths (MBytes):  RWF=     86 Int=      0 D2E=      0 Chk=      1 Scr=      1
 Normal termination of Gaussian 09 at Fri Feb 24 00:15:33 2017.
