 Entering Gaussian System, Link 0=g09
 Input=CH3_B_6Gdp.com
 Output=CH3_B_6Gdp.log
 Initial command:
 /sw/contrib/gaussian/g09/E01/g09/l1.exe "/scr/Gau-22869.inp" -scrdir="/scr/"
 Entering Link 1 = /sw/contrib/gaussian/g09/E01/g09/l1.exe PID=     22870.
  
 Copyright (c) 1988,1990,1992,1993,1995,1998,2003,2009,2015,
            Gaussian, Inc.  All Rights Reserved.
  
 This is part of the Gaussian(R) 09 program.  It is based on
 the Gaussian(R) 03 system (copyright 2003, Gaussian, Inc.),
 the Gaussian(R) 98 system (copyright 1998, Gaussian, Inc.),
 the Gaussian(R) 94 system (copyright 1995, Gaussian, Inc.),
 the Gaussian 92(TM) system (copyright 1992, Gaussian, Inc.),
 the Gaussian 90(TM) system (copyright 1990, Gaussian, Inc.),
 the Gaussian 88(TM) system (copyright 1988, Gaussian, Inc.),
 the Gaussian 86(TM) system (copyright 1986, Carnegie Mellon
 University), and the Gaussian 82(TM) system (copyright 1983,
 Carnegie Mellon University). Gaussian is a federally registered
 trademark of Gaussian, Inc.
  
 This software contains proprietary and confidential information,
 including trade secrets, belonging to Gaussian, Inc.
  
 This software is provided under written license and may be
 used, copied, transmitted, or stored only in accord with that
 written license.
  
 The following legend is applicable only to US Government
 contracts under FAR:
  
                    RESTRICTED RIGHTS LEGEND
  
 Use, reproduction and disclosure by the US Government is
 subject to restrictions as set forth in subparagraphs (a)
 and (c) of the Commercial Computer Software - Restricted
 Rights clause in FAR 52.227-19.
  
 Gaussian, Inc.
 340 Quinnipiac St., Bldg. 40, Wallingford CT 06492
  
  
 ---------------------------------------------------------------
 Warning -- This program may not be used in any manner that
 competes with the business of Gaussian, Inc. or will provide
 assistance to any competitor of Gaussian, Inc.  The licensee
 of this program is prohibited from giving any competitor of
 Gaussian, Inc. access to this program.  By using this program,
 the user acknowledges that Gaussian, Inc. is engaged in the
 business of creating and licensing software in the field of
 computational chemistry and represents and warrants to the
 licensee that it is not a competitor of Gaussian, Inc. and that
 it will not use this program in any manner prohibited above.
 ---------------------------------------------------------------
  

 Cite this work as:
 Gaussian 09, Revision E.01,
 M. J. Frisch, G. W. Trucks, H. B. Schlegel, G. E. Scuseria, 
 M. A. Robb, J. R. Cheeseman, G. Scalmani, V. Barone, B. Mennucci, 
 G. A. Petersson, H. Nakatsuji, M. Caricato, X. Li, H. P. Hratchian, 
 A. F. Izmaylov, J. Bloino, G. Zheng, J. L. Sonnenberg, M. Hada, 
 M. Ehara, K. Toyota, R. Fukuda, J. Hasegawa, M. Ishida, T. Nakajima, 
 Y. Honda, O. Kitao, H. Nakai, T. Vreven, J. A. Montgomery, Jr., 
 J. E. Peralta, F. Ogliaro, M. Bearpark, J. J. Heyd, E. Brothers, 
 K. N. Kudin, V. N. Staroverov, T. Keith, R. Kobayashi, J. Normand, 
 K. Raghavachari, A. Rendell, J. C. Burant, S. S. Iyengar, J. Tomasi, 
 M. Cossi, N. Rega, J. M. Millam, M. Klene, J. E. Knox, J. B. Cross, 
 V. Bakken, C. Adamo, J. Jaramillo, R. Gomperts, R. E. Stratmann, 
 O. Yazyev, A. J. Austin, R. Cammi, C. Pomelli, J. W. Ochterski, 
 R. L. Martin, K. Morokuma, V. G. Zakrzewski, G. A. Voth, 
 P. Salvador, J. J. Dannenberg, S. Dapprich, A. D. Daniels, 
 O. Farkas, J. B. Foresman, J. V. Ortiz, J. Cioslowski, 
 and D. J. Fox, Gaussian, Inc., Wallingford CT, 2013.
 
 ******************************************
 Gaussian 09:  ES64L-G09RevE.01 30-Nov-2015
                23-Feb-2017 
 ******************************************
 %NProcShared=8
 Will use up to    8 processors via shared memory.
 -----------------------
 #n B3LYP/6-31G(d,p) Opt
 -----------------------
 1/14=-1,18=20,19=15,26=3,38=1/1,3;
 2/9=110,12=2,17=6,18=5,40=1/2;
 3/5=1,6=6,7=101,11=2,16=1,25=1,30=1,71=1,74=-5/1,2,3;
 4//1;
 5/5=2,38=5/2;
 6/7=2,8=2,9=2,10=2,28=1/1;
 7//1,2,3,16;
 1/14=-1,18=20,19=15,26=3/3(2);
 2/9=110/2;
 99//99;
 2/9=110/2;
 3/5=1,6=6,7=101,11=2,16=1,25=1,30=1,71=1,74=-5/1,2,3;
 4/5=5,16=3,69=1/1;
 5/5=2,38=5/2;
 7//1,2,3,16;
 1/14=-1,18=20,19=15,26=3/3(-5);
 2/9=110/2;
 6/7=2,8=2,9=2,10=2,19=2,28=1/1;
 99/9=1/99;
 ------------------
 CH3_B3LYP/6-31G(d)
 ------------------
 Symbolic Z-matrix:
 Charge =  0 Multiplicity = 1
 C                    -1.76985   1.60508   0. 
 C                    -0.94833   0.30637   0. 
 H                    -2.70278   1.46556   0.5507 
 H                    -2.01181   1.90264  -1.02275 
 H                    -1.2057    2.41255   0.47205 
 H                    -1.51248  -0.5011   -0.47205 
 H                    -0.70637   0.00881   1.02275 
 H                    -0.0154    0.44589  -0.5507 
 

 GradGradGradGradGradGradGradGradGradGradGradGradGradGradGradGradGradGrad
 Berny optimization.
 Initialization pass.
                           ----------------------------
                           !    Initial Parameters    !
                           ! (Angstroms and Degrees)  !
 --------------------------                            --------------------------
 ! Name  Definition              Value          Derivative Info.                !
 --------------------------------------------------------------------------------
 ! R1    R(1,2)                  1.5367         estimate D2E/DX2                !
 ! R2    R(1,3)                  1.0923         estimate D2E/DX2                !
 ! R3    R(1,4)                  1.0923         estimate D2E/DX2                !
 ! R4    R(1,5)                  1.0923         estimate D2E/DX2                !
 ! R5    R(2,6)                  1.0923         estimate D2E/DX2                !
 ! R6    R(2,7)                  1.0923         estimate D2E/DX2                !
 ! R7    R(2,8)                  1.0923         estimate D2E/DX2                !
 ! A1    A(2,1,3)              110.4046         estimate D2E/DX2                !
 ! A2    A(2,1,4)              110.4044         estimate D2E/DX2                !
 ! A3    A(2,1,5)              110.404          estimate D2E/DX2                !
 ! A4    A(3,1,4)              108.5221         estimate D2E/DX2                !
 ! A5    A(3,1,5)              108.5221         estimate D2E/DX2                !
 ! A6    A(4,1,5)              108.5224         estimate D2E/DX2                !
 ! A7    A(1,2,6)              110.404          estimate D2E/DX2                !
 ! A8    A(1,2,7)              110.4044         estimate D2E/DX2                !
 ! A9    A(1,2,8)              110.4046         estimate D2E/DX2                !
 ! A10   A(6,2,7)              108.5224         estimate D2E/DX2                !
 ! A11   A(6,2,8)              108.5221         estimate D2E/DX2                !
 ! A12   A(7,2,8)              108.5221         estimate D2E/DX2                !
 ! D1    D(3,1,2,6)             60.0001         estimate D2E/DX2                !
 ! D2    D(3,1,2,7)            -59.9999         estimate D2E/DX2                !
 ! D3    D(3,1,2,8)            180.0            estimate D2E/DX2                !
 ! D4    D(4,1,2,6)            -59.9999         estimate D2E/DX2                !
 ! D5    D(4,1,2,7)            180.0            estimate D2E/DX2                !
 ! D6    D(4,1,2,8)             59.9999         estimate D2E/DX2                !
 ! D7    D(5,1,2,6)           -180.0            estimate D2E/DX2                !
 ! D8    D(5,1,2,7)             59.9999         estimate D2E/DX2                !
 ! D9    D(5,1,2,8)            -60.0001         estimate D2E/DX2                !
 --------------------------------------------------------------------------------
 Trust Radius=3.00D-01 FncErr=1.00D-07 GrdErr=1.00D-06
 Number of steps in this run=     38 maximum allowed number of steps=    100.
 GradGradGradGradGradGradGradGradGradGradGradGradGradGradGradGradGradGrad

                          Input orientation:                          
 ---------------------------------------------------------------------
 Center     Atomic      Atomic             Coordinates (Angstroms)
 Number     Number       Type             X           Y           Z
 ---------------------------------------------------------------------
      1          6           0       -1.769850    1.605080    0.000000
      2          6           0       -0.948330    0.306370    0.000000
      3          1           0       -2.702780    1.465560    0.550700
      4          1           0       -2.011810    1.902640   -1.022750
      5          1           0       -1.205700    2.412550    0.472050
      6          1           0       -1.512480   -0.501100   -0.472050
      7          1           0       -0.706370    0.008810    1.022750
      8          1           0       -0.015400    0.445890   -0.550700
 ---------------------------------------------------------------------
                    Distance matrix (angstroms):
                    1          2          3          4          5
     1  C    0.000000
     2  C    1.536731   0.000000
     3  H    1.092289   2.173726   0.000000
     4  H    1.092293   2.173726   1.773196   0.000000
     5  H    1.092293   2.173721   1.773196   1.773203   0.000000
     6  H    2.173721   1.092293   2.516065   2.516062   3.078116
     7  H    2.173726   1.092293   2.516069   3.078122   2.516062
     8  H    2.173726   1.092289   3.078120   2.516069   2.516065
                    6          7          8
     6  H    0.000000
     7  H    1.773203   0.000000
     8  H    1.773196   1.773196   0.000000
 This structure is nearly, but not quite of a higher symmetry.
 Consider Symm=Loose if the higher symmetry is desired.
 Stoichiometry    C2H6
 Framework group  CI[X(C2H6)]
 Deg. of freedom     9
 Full point group                 CI      NOp   2
 Largest Abelian subgroup         CI      NOp   2
 Largest concise Abelian subgroup CI      NOp   2
                         Standard orientation:                         
 ---------------------------------------------------------------------
 Center     Atomic      Atomic             Coordinates (Angstroms)
 Number     Number       Type             X           Y           Z
 ---------------------------------------------------------------------
      1          6           0       -0.410760    0.649355    0.000000
      2          6           0        0.410760   -0.649355    0.000000
      3          1           0       -1.343690    0.509835    0.550700
      4          1           0       -0.652720    0.946915   -1.022750
      5          1           0        0.153390    1.456825    0.472050
      6          1           0       -0.153390   -1.456825   -0.472050
      7          1           0        0.652720   -0.946915    1.022750
      8          1           0        1.343690   -0.509835   -0.550700
 ---------------------------------------------------------------------
 Rotational constants (GHZ):     79.7420612     19.9566490     19.9566228
 Standard basis: 6-31G(d,p) (6D, 7F)
 There are    30 symmetry adapted cartesian basis functions of AG  symmetry.
 There are    30 symmetry adapted cartesian basis functions of AU  symmetry.
 There are    30 symmetry adapted basis functions of AG  symmetry.
 There are    30 symmetry adapted basis functions of AU  symmetry.
    60 basis functions,    98 primitive gaussians,    60 cartesian basis functions
     9 alpha electrons        9 beta electrons
       nuclear repulsion energy        42.1696170358 Hartrees.
 NAtoms=    8 NActive=    8 NUniq=    4 SFac= 4.00D+00 NAtFMM=   60 NAOKFM=F Big=F
 Integral buffers will be    131072 words long.
 Raffenetti 2 integral format.
 Two-electron integral symmetry is turned on.
 One-electron integrals computed using PRISM.
 NBasis=    60 RedAO= T EigKep=  5.73D-03  NBF=    30    30
 NBsUse=    60 1.00D-06 EigRej= -1.00D+00 NBFU=    30    30
 ExpMin= 1.61D-01 ExpMax= 3.05D+03 ExpMxC= 4.57D+02 IAcc=1 IRadAn=         1 AccDes= 0.00D+00
 Harris functional with IExCor=  402 and IRadAn=       1 diagonalized for initial guess.
 HarFok:  IExCor=  402 AccDes= 0.00D+00 IRadAn=         1 IDoV= 1 UseB2=F ITyADJ=14
 ICtDFT=  3500011 ScaDFX=  1.000000  1.000000  1.000000  1.000000
 FoFCou: FMM=F IPFlag=           0 FMFlag=      100000 FMFlg1=           0
         NFxFlg=           0 DoJE=T BraDBF=F KetDBF=T FulRan=T
         wScrn=  0.000000 ICntrl=     500 IOpCl=  0 I1Cent=   200000004 NGrid=           0
         NMat0=    1 NMatS0=      1 NMatT0=    0 NMatD0=    1 NMtDS0=    0 NMtDT0=    0
 Petite list used in FoFCou.
 Initial guess orbital symmetries:
       Occupied  (AG) (AU) (AG) (AU) (AU) (AU) (AG) (AG) (AG)
       Virtual   (AG) (AU) (AU) (AU) (AG) (AG) (AU) (AG) (AU) (AU)
                 (AG) (AG) (AU) (AG) (AU) (AU) (AG) (AG) (AU) (AG)
                 (AU) (AU) (AU) (AG) (AG) (AG) (AU) (AU) (AU) (AG)
                 (AG) (AG) (AU) (AU) (AU) (AG) (AG) (AG) (AU) (AU)
                 (AU) (AG) (AG) (AG) (AU) (AG) (AG) (AU) (AU) (AG)
                 (AU)
 The electronic state of the initial guess is 1-AG.
 Keep R1 ints in memory in symmetry-blocked form, NReq=2591325.
 Requested convergence on RMS density matrix=1.00D-08 within 128 cycles.
 Requested convergence on MAX density matrix=1.00D-06.
 Requested convergence on             energy=1.00D-06.
 No special actions if energy rises.
 Integral accuracy reduced to 1.0D-05 until final iterations.
 Initial convergence to 1.0D-05 achieved.  Increase integral accuracy.
 SCF Done:  E(RB3LYP) =  -79.8384829534     A.U. after    9 cycles
            NFock=  9  Conv=0.85D-08     -V/T= 2.0106

 **********************************************************************

            Population analysis using the SCF density.

 **********************************************************************

 Orbital symmetries:
       Occupied  (AG) (AU) (AG) (AU) (AU) (AU) (AG) (AG) (AG)
       Virtual   (AG) (AU) (AU) (AU) (AG) (AG) (AU) (AG) (AU) (AU)
                 (AG) (AG) (AU) (AU) (AU) (AG) (AG) (AG) (AU) (AG)
                 (AU) (AU) (AU) (AG) (AG) (AG) (AU) (AG) (AU) (AU)
                 (AG) (AG) (AU) (AU) (AU) (AG) (AG) (AG) (AU) (AU)
                 (AU) (AG) (AG) (AG) (AU) (AG) (AG) (AU) (AU) (AG)
                 (AU)
 The electronic state is 1-AG.
 Alpha  occ. eigenvalues --  -10.17152 -10.17131  -0.74769  -0.61067  -0.43142
 Alpha  occ. eigenvalues --   -0.43142  -0.35736  -0.34091  -0.34091
 Alpha virt. eigenvalues --    0.10397   0.15887   0.16664   0.16664   0.18890
 Alpha virt. eigenvalues --    0.18890   0.23758   0.50879   0.54157   0.54157
 Alpha virt. eigenvalues --    0.61382   0.61382   0.66260   0.86859   0.86859
 Alpha virt. eigenvalues --    0.87873   0.89917   0.89917   0.95780   1.06692
 Alpha virt. eigenvalues --    1.32629   1.32629   1.44163   1.68555   1.68555
 Alpha virt. eigenvalues --    1.86313   2.05353   2.05408   2.06802   2.06802
 Alpha virt. eigenvalues --    2.07795   2.07796   2.27823   2.27823   2.33775
 Alpha virt. eigenvalues --    2.49048   2.49048   2.67818   2.74453   2.80738
 Alpha virt. eigenvalues --    2.80739   2.91903   2.91904   3.15826   3.25436
 Alpha virt. eigenvalues --    3.38724   3.38725   3.52777   3.52778   4.32461
 Alpha virt. eigenvalues --    4.58066
          Condensed to atoms (all electrons):
               1          2          3          4          5          6
     1  C    4.875031   0.371327   0.392040   0.392040   0.392041  -0.035667
     2  C    0.371327   4.875031  -0.035667  -0.035665  -0.035667   0.392041
     3  H    0.392040  -0.035667   0.606174  -0.032240  -0.032240  -0.004098
     4  H    0.392040  -0.035665  -0.032240   0.606172  -0.032238  -0.004098
     5  H    0.392041  -0.035667  -0.032240  -0.032238   0.606169   0.004969
     6  H   -0.035667   0.392041  -0.004098  -0.004098   0.004969   0.606169
     7  H   -0.035665   0.392040  -0.004098   0.004969  -0.004098  -0.032238
     8  H   -0.035667   0.392040   0.004969  -0.004098  -0.004098  -0.032240
               7          8
     1  C   -0.035665  -0.035667
     2  C    0.392040   0.392040
     3  H   -0.004098   0.004969
     4  H    0.004969  -0.004098
     5  H   -0.004098  -0.004098
     6  H   -0.032238  -0.032240
     7  H    0.606172  -0.032240
     8  H   -0.032240   0.606174
 Mulliken charges:
               1
     1  C   -0.315479
     2  C   -0.315479
     3  H    0.105159
     4  H    0.105159
     5  H    0.105162
     6  H    0.105162
     7  H    0.105159
     8  H    0.105159
 Sum of Mulliken charges =   0.00000
 Mulliken charges with hydrogens summed into heavy atoms:
               1
     1  C    0.000000
     2  C    0.000000
 Electronic spatial extent (au):  <R**2>=            109.2543
 Charge=              0.0000 electrons
 Dipole moment (field-independent basis, Debye):
    X=              0.0000    Y=              0.0000    Z=              0.0000  Tot=              0.0000
 Quadrupole moment (field-independent basis, Debye-Ang):
   XX=            -14.8537   YY=            -15.1439   ZZ=            -14.6601
   XY=              0.3061   XZ=              0.0000   YZ=              0.0000
 Traceless Quadrupole moment (field-independent basis, Debye-Ang):
   XX=              0.0322   YY=             -0.2580   ZZ=              0.2258
   XY=              0.3061   XZ=              0.0000   YZ=              0.0000
 Octapole moment (field-independent basis, Debye-Ang**2):
  XXX=              0.0000  YYY=              0.0000  ZZZ=              0.0000  XYY=              0.0000
  XXY=              0.0000  XXZ=              0.0000  XZZ=              0.0000  YZZ=              0.0000
  YYZ=              0.0000  XYZ=              0.0000
 Hexadecapole moment (field-independent basis, Debye-Ang**3):
 XXXX=            -45.8935 YYYY=            -72.8904 ZZZZ=            -28.7810 XXXY=             13.7560
 XXXZ=             -1.3771 YYYX=             15.0886 YYYZ=              0.8711 ZZZX=              0.6427
 ZZZY=             -1.0160 XXYY=            -20.3848 XXZZ=            -12.1791 YYZZ=            -16.5640
 XXYZ=              0.1449 YYXZ=              0.7343 ZZXY=              4.2482
 N-N= 4.216961703580D+01 E-N=-2.681905036421D+02  KE= 7.900387103698D+01
 Symmetry AG   KE= 4.101325740256D+01
 Symmetry AU   KE= 3.799061363441D+01
 Calling FoFJK, ICntrl=      2127 FMM=F ISym2X=1 I1Cent= 0 IOpClX= 0 NMat=1 NMatS=1 NMatT=0.
 ***** Axes restored to original set *****
 -------------------------------------------------------------------
 Center     Atomic                   Forces (Hartrees/Bohr)
 Number     Number              X              Y              Z
 -------------------------------------------------------------------
      1        6           0.004151738   -0.006600433    0.000015065
      2        6          -0.004151738    0.006600433   -0.000015065
      3        1          -0.001772015    0.001915819    0.000305163
      4        1          -0.001398024    0.002165149   -0.000567505
      5        1          -0.000954490    0.002450636    0.000257663
      6        1           0.000954490   -0.002450636   -0.000257663
      7        1           0.001398024   -0.002165149    0.000567505
      8        1           0.001772015   -0.001915819   -0.000305163
 -------------------------------------------------------------------
 Cartesian Forces:  Max     0.006600433 RMS     0.002608541

 GradGradGradGradGradGradGradGradGradGradGradGradGradGradGradGradGradGrad
 Berny optimization.
 FormGI is forming the generalized inverse of G from B-inverse, IUseBI=4.
 Internal  Forces:  Max     0.002290443 RMS     0.001613865
 Search for a local minimum.
 Step number   1 out of a maximum of   38
 All quantities printed in internal units (Hartrees-Bohrs-Radians)
 Mixed Optimization -- RFO/linear search
 Second derivative matrix not updated -- first step.
 ITU=  0
     Eigenvalues ---    0.00280   0.05575   0.05575   0.05575   0.05575
     Eigenvalues ---    0.16000   0.16000   0.16000   0.16000   0.16000
     Eigenvalues ---    0.16000   0.28810   0.34549   0.34549   0.34549
     Eigenvalues ---    0.34549   0.34549   0.34549
 RFO step:  Lambda=-4.13714379D-04 EMin= 2.80064107D-03
 Linear search not attempted -- first point.
 Iteration  1 RMS(Cart)=  0.01316308 RMS(Int)=  0.00009916
 Iteration  2 RMS(Cart)=  0.00008020 RMS(Int)=  0.00006071
 Iteration  3 RMS(Cart)=  0.00000000 RMS(Int)=  0.00006071
 ClnCor:  largest displacement from symmetrization is 7.83D-09 for atom     6.
 Variable       Old X    -DE/DX   Delta X   Delta X   Delta X     New X
                                 (Linear)    (Quad)   (Total)
    R1        2.90400  -0.00007   0.00000  -0.00025  -0.00025   2.90375
    R2        2.06413   0.00142   0.00000   0.00410   0.00410   2.06823
    R3        2.06413   0.00143   0.00000   0.00414   0.00414   2.06827
    R4        2.06413   0.00143   0.00000   0.00414   0.00414   2.06827
    R5        2.06413   0.00143   0.00000   0.00414   0.00414   2.06827
    R6        2.06413   0.00143   0.00000   0.00414   0.00414   2.06827
    R7        2.06413   0.00142   0.00000   0.00410   0.00410   2.06823
    A1        1.92692   0.00221   0.00000   0.01379   0.01369   1.94062
    A2        1.92692   0.00221   0.00000   0.01376   0.01367   1.94059
    A3        1.92691   0.00221   0.00000   0.01380   0.01370   1.94062
    A4        1.89407  -0.00228   0.00000  -0.01421  -0.01430   1.87977
    A5        1.89407  -0.00229   0.00000  -0.01423  -0.01432   1.87975
    A6        1.89407  -0.00229   0.00000  -0.01431  -0.01440   1.87967
    A7        1.92691   0.00221   0.00000   0.01380   0.01370   1.94062
    A8        1.92692   0.00221   0.00000   0.01376   0.01367   1.94059
    A9        1.92692   0.00221   0.00000   0.01379   0.01369   1.94062
   A10        1.89407  -0.00229   0.00000  -0.01431  -0.01440   1.87967
   A11        1.89407  -0.00229   0.00000  -0.01423  -0.01432   1.87975
   A12        1.89407  -0.00228   0.00000  -0.01421  -0.01430   1.87977
    D1        1.04720   0.00000   0.00000  -0.00004  -0.00004   1.04716
    D2       -1.04720   0.00000   0.00000   0.00004   0.00004  -1.04715
    D3        3.14159   0.00000   0.00000   0.00000   0.00000   3.14159
    D4       -1.04720   0.00000   0.00000  -0.00008  -0.00008  -1.04727
    D5        3.14159   0.00000   0.00000   0.00000   0.00000   3.14159
    D6        1.04720   0.00000   0.00000  -0.00004  -0.00004   1.04715
    D7        3.14159   0.00000   0.00000   0.00000   0.00000   3.14159
    D8        1.04720   0.00000   0.00000   0.00008   0.00008   1.04727
    D9       -1.04720   0.00000   0.00000   0.00004   0.00004  -1.04716
         Item               Value     Threshold  Converged?
 Maximum Force            0.002290     0.000450     NO 
 RMS     Force            0.001614     0.000300     NO 
 Maximum Displacement     0.026237     0.001800     NO 
 RMS     Displacement     0.013174     0.001200     NO 
 Predicted change in Energy=-2.073592D-04
 GradGradGradGradGradGradGradGradGradGradGradGradGradGradGradGradGradGrad

                          Input orientation:                          
 ---------------------------------------------------------------------
 Center     Atomic      Atomic             Coordinates (Angstroms)
 Number     Number       Type             X           Y           Z
 ---------------------------------------------------------------------
      1          6           0       -1.769821    1.605019    0.000011
      2          6           0       -0.948359    0.306431   -0.000011
      3          1           0       -2.708299    1.479444    0.548952
      4          1           0       -2.019520    1.915153   -1.019480
      5          1           0       -1.216018    2.423441    0.470524
      6          1           0       -1.502162   -0.511991   -0.470524
      7          1           0       -0.698660   -0.003703    1.019480
      8          1           0       -0.009881    0.432006   -0.548952
 ---------------------------------------------------------------------
                    Distance matrix (angstroms):
                    1          2          3          4          5
     1  C    0.000000
     2  C    1.536598   0.000000
     3  H    1.094461   2.185111   0.000000
     4  H    1.094484   2.185107   1.767550   0.000000
     5  H    1.094483   2.185127   1.767536   1.767507   0.000000
     6  H    2.185127   1.094483   2.541636   2.541661   3.095838
     7  H    2.185107   1.094484   2.541608   3.095810   2.541661
     8  H    2.185111   1.094461   3.095800   2.541608   2.541636
                    6          7          8
     6  H    0.000000
     7  H    1.767507   0.000000
     8  H    1.767536   1.767550   0.000000
 Stoichiometry    C2H6
 Framework group  CI[X(C2H6)]
 Deg. of freedom     9
 Full point group                 CI      NOp   2
 Largest Abelian subgroup         CI      NOp   2
 Largest concise Abelian subgroup CI      NOp   2
                         Standard orientation:                         
 ---------------------------------------------------------------------
 Center     Atomic      Atomic             Coordinates (Angstroms)
 Number     Number       Type             X           Y           Z
 ---------------------------------------------------------------------
      1          6           0       -0.410731    0.649294    0.000011
      2          6           0        0.410731   -0.649294   -0.000011
      3          1           0       -1.349209    0.523719    0.548952
      4          1           0       -0.660430    0.959428   -1.019480
      5          1           0        0.143072    1.467716    0.470524
      6          1           0       -0.143072   -1.467716   -0.470524
      7          1           0        0.660430   -0.959428    1.019480
      8          1           0        1.349209   -0.523719   -0.548952
 ---------------------------------------------------------------------
 Rotational constants (GHZ):     80.2542293     19.8135776     19.8134381
 Standard basis: 6-31G(d,p) (6D, 7F)
 There are    30 symmetry adapted cartesian basis functions of AG  symmetry.
 There are    30 symmetry adapted cartesian basis functions of AU  symmetry.
 There are    30 symmetry adapted basis functions of AG  symmetry.
 There are    30 symmetry adapted basis functions of AU  symmetry.
    60 basis functions,    98 primitive gaussians,    60 cartesian basis functions
     9 alpha electrons        9 beta electrons
       nuclear repulsion energy        42.0802997354 Hartrees.
 NAtoms=    8 NActive=    8 NUniq=    4 SFac= 4.00D+00 NAtFMM=   60 NAOKFM=F Big=F
 Integral buffers will be    131072 words long.
 Raffenetti 2 integral format.
 Two-electron integral symmetry is turned on.
 One-electron integrals computed using PRISM.
 NBasis=    60 RedAO= T EigKep=  5.84D-03  NBF=    30    30
 NBsUse=    60 1.00D-06 EigRej= -1.00D+00 NBFU=    30    30
 Initial guess from the checkpoint file:  "/scr/Gau-22870.chk"
 B after Tr=     0.000000    0.000000    0.000000
         Rot=    1.000000   -0.000002   -0.000001   -0.000002 Ang=   0.00 deg.
 Initial guess orbital symmetries:
       Occupied  (AG) (AU) (AG) (AU) (AU) (AU) (AG) (AG) (AG)
       Virtual   (AG) (AG) (AG) (AG) (AG) (AG) (AG) (AG) (AG) (AG)
                 (AG) (AG) (AG) (AG) (AG) (AG) (AG) (AG) (AG) (AG)
                 (AG) (AG) (AG) (AG) (AG) (AU) (AU) (AU) (AU) (AU)
                 (AU) (AU) (AU) (AU) (AU) (AU) (AU) (AU) (AU) (AU)
                 (AU) (AU) (AU) (AU) (AU) (AU) (AU) (AU) (AU) (AU)
                 (AU)
 ExpMin= 1.61D-01 ExpMax= 3.05D+03 ExpMxC= 4.57D+02 IAcc=1 IRadAn=         1 AccDes= 0.00D+00
 Harris functional with IExCor=  402 and IRadAn=       1 diagonalized for initial guess.
 HarFok:  IExCor=  402 AccDes= 0.00D+00 IRadAn=         1 IDoV= 1 UseB2=F ITyADJ=14
 ICtDFT=  3500011 ScaDFX=  1.000000  1.000000  1.000000  1.000000
 FoFCou: FMM=F IPFlag=           0 FMFlag=      100000 FMFlg1=           0
         NFxFlg=           0 DoJE=T BraDBF=F KetDBF=T FulRan=T
         wScrn=  0.000000 ICntrl=     500 IOpCl=  0 I1Cent=   200000004 NGrid=           0
         NMat0=    1 NMatS0=      1 NMatT0=    0 NMatD0=    1 NMtDS0=    0 NMtDT0=    0
 Petite list used in FoFCou.
 Keep R1 ints in memory in symmetry-blocked form, NReq=2591325.
 Requested convergence on RMS density matrix=1.00D-08 within 128 cycles.
 Requested convergence on MAX density matrix=1.00D-06.
 Requested convergence on             energy=1.00D-06.
 No special actions if energy rises.
 Integral accuracy reduced to 1.0D-05 until final iterations.
 Initial convergence to 1.0D-05 achieved.  Increase integral accuracy.
 SCF Done:  E(RB3LYP) =  -79.8387160285     A.U. after    9 cycles
            NFock=  9  Conv=0.17D-08     -V/T= 2.0108
 Calling FoFJK, ICntrl=      2127 FMM=F ISym2X=1 I1Cent= 0 IOpClX= 0 NMat=1 NMatS=1 NMatT=0.
 ***** Axes restored to original set *****
 -------------------------------------------------------------------
 Center     Atomic                   Forces (Hartrees/Bohr)
 Number     Number              X              Y              Z
 -------------------------------------------------------------------
      1        6           0.002087570   -0.003306819    0.000000397
      2        6          -0.002087570    0.003306819   -0.000000397
      3        1          -0.000285565    0.000235526    0.000074279
      4        1          -0.000197201    0.000292756   -0.000131760
      5        1          -0.000090810    0.000361314    0.000061231
      6        1           0.000090810   -0.000361314   -0.000061231
      7        1           0.000197201   -0.000292756    0.000131760
      8        1           0.000285565   -0.000235526   -0.000074279
 -------------------------------------------------------------------
 Cartesian Forces:  Max     0.003306819 RMS     0.001144553

 GradGradGradGradGradGradGradGradGradGradGradGradGradGradGradGradGradGrad
 Berny optimization.
 Using GEDIIS/GDIIS optimizer.
 FormGI is forming the generalized inverse of G from B-inverse, IUseBI=4.
 Internal  Forces:  Max     0.002852189 RMS     0.000581476
 Search for a local minimum.
 Step number   2 out of a maximum of   38
 All quantities printed in internal units (Hartrees-Bohrs-Radians)
 Mixed Optimization -- En-DIIS/RFO-DIIS
 Update second derivatives using D2CorX and points    1    2
 DE= -2.33D-04 DEPred=-2.07D-04 R= 1.12D+00
 TightC=F SS=  1.41D+00  RLast= 4.96D-02 DXNew= 5.0454D-01 1.4881D-01
 Trust test= 1.12D+00 RLast= 4.96D-02 DXMaxT set to 3.00D-01
 ITU=  1  0
 Use linear search instead of GDIIS.
     Eigenvalues ---    0.00280   0.05431   0.05431   0.05431   0.05431
     Eigenvalues ---    0.12553   0.16000   0.16000   0.16000   0.16000
     Eigenvalues ---    0.16000   0.31287   0.34549   0.34549   0.34549
     Eigenvalues ---    0.34549   0.34549   0.35312
 RFO step:  Lambda=-3.74526209D-05 EMin= 2.80064107D-03
 Quartic linear search produced a step of  0.15387.
 Iteration  1 RMS(Cart)=  0.00169439 RMS(Int)=  0.00001326
 Iteration  2 RMS(Cart)=  0.00000600 RMS(Int)=  0.00001234
 Iteration  3 RMS(Cart)=  0.00000000 RMS(Int)=  0.00001234
 ClnCor:  largest displacement from symmetrization is 1.07D-08 for atom     8.
 Variable       Old X    -DE/DX   Delta X   Delta X   Delta X     New X
                                 (Linear)    (Quad)   (Total)
    R1        2.90375  -0.00285  -0.00004  -0.01141  -0.01144   2.89230
    R2        2.06823   0.00025   0.00063   0.00059   0.00122   2.06945
    R3        2.06827   0.00025   0.00064   0.00058   0.00122   2.06949
    R4        2.06827   0.00025   0.00064   0.00058   0.00122   2.06949
    R5        2.06827   0.00025   0.00064   0.00058   0.00122   2.06949
    R6        2.06827   0.00025   0.00064   0.00058   0.00122   2.06949
    R7        2.06823   0.00025   0.00063   0.00059   0.00122   2.06945
    A1        1.94062   0.00027   0.00211   0.00115   0.00324   1.94385
    A2        1.94059   0.00027   0.00210   0.00113   0.00321   1.94380
    A3        1.94062   0.00027   0.00211   0.00112   0.00321   1.94383
    A4        1.87977  -0.00029  -0.00220  -0.00121  -0.00342   1.87634
    A5        1.87975  -0.00029  -0.00220  -0.00120  -0.00342   1.87632
    A6        1.87967  -0.00029  -0.00222  -0.00120  -0.00343   1.87624
    A7        1.94062   0.00027   0.00211   0.00112   0.00321   1.94383
    A8        1.94059   0.00027   0.00210   0.00113   0.00321   1.94380
    A9        1.94062   0.00027   0.00211   0.00115   0.00324   1.94385
   A10        1.87967  -0.00029  -0.00222  -0.00120  -0.00343   1.87624
   A11        1.87975  -0.00029  -0.00220  -0.00120  -0.00342   1.87632
   A12        1.87977  -0.00029  -0.00220  -0.00121  -0.00342   1.87634
    D1        1.04716   0.00000  -0.00001   0.00000  -0.00001   1.04716
    D2       -1.04715   0.00000   0.00001   0.00000   0.00001  -1.04714
    D3        3.14159   0.00000   0.00000   0.00000   0.00000   3.14159
    D4       -1.04727   0.00000  -0.00001  -0.00001  -0.00002  -1.04729
    D5        3.14159   0.00000   0.00000   0.00000   0.00000   3.14159
    D6        1.04715   0.00000  -0.00001   0.00000  -0.00001   1.04714
    D7        3.14159   0.00000   0.00000   0.00000   0.00000   3.14159
    D8        1.04727   0.00000   0.00001   0.00001   0.00002   1.04729
    D9       -1.04716   0.00000   0.00001   0.00000   0.00001  -1.04716
         Item               Value     Threshold  Converged?
 Maximum Force            0.002852     0.000450     NO 
 RMS     Force            0.000581     0.000300     NO 
 Maximum Displacement     0.004842     0.001800     NO 
 RMS     Displacement     0.001696     0.001200     NO 
 Predicted change in Energy=-2.274459D-05
 GradGradGradGradGradGradGradGradGradGradGradGradGradGradGradGradGradGrad

                          Input orientation:                          
 ---------------------------------------------------------------------
 Center     Atomic      Atomic             Coordinates (Angstroms)
 Number     Number       Type             X           Y           Z
 ---------------------------------------------------------------------
      1          6           0       -1.768207    1.602457    0.000014
      2          6           0       -0.949973    0.308993   -0.000014
      3          1           0       -2.708085    1.480169    0.548589
      4          1           0       -2.019755    1.915581   -1.018799
      5          1           0       -1.216789    2.423530    0.470209
      6          1           0       -1.501391   -0.512080   -0.470209
      7          1           0       -0.698425   -0.004131    1.018799
      8          1           0       -0.010095    0.431281   -0.548589
 ---------------------------------------------------------------------
                    Distance matrix (angstroms):
                    1          2          3          4          5
     1  C    0.000000
     2  C    1.530542   0.000000
     3  H    1.095107   2.182563   0.000000
     4  H    1.095128   2.182540   1.766377   0.000000
     5  H    1.095128   2.182560   1.766363   1.766328   0.000000
     6  H    2.182560   1.095128   2.542266   2.542280   3.095673
     7  H    2.182540   1.095128   2.542239   3.095645   2.542280
     8  H    2.182563   1.095107   3.095662   2.542239   2.542266
                    6          7          8
     6  H    0.000000
     7  H    1.766328   0.000000
     8  H    1.766363   1.766377   0.000000
 Stoichiometry    C2H6
 Framework group  CI[X(C2H6)]
 Deg. of freedom     9
 Full point group                 CI      NOp   2
 Largest Abelian subgroup         CI      NOp   2
 Largest concise Abelian subgroup CI      NOp   2
                         Standard orientation:                         
 ---------------------------------------------------------------------
 Center     Atomic      Atomic             Coordinates (Angstroms)
 Number     Number       Type             X           Y           Z
 ---------------------------------------------------------------------
      1          6           0       -0.409117    0.646732    0.000014
      2          6           0        0.409117   -0.646732   -0.000014
      3          1           0       -1.348995    0.524444    0.548589
      4          1           0       -0.660665    0.959856   -1.018799
      5          1           0        0.142301    1.467805    0.470209
      6          1           0       -0.142301   -1.467805   -0.470209
      7          1           0        0.660665   -0.959856    1.018799
      8          1           0        1.348995   -0.524444   -0.548589
 ---------------------------------------------------------------------
 Rotational constants (GHZ):     80.3610483     19.8984099     19.8982457
 Standard basis: 6-31G(d,p) (6D, 7F)
 There are    30 symmetry adapted cartesian basis functions of AG  symmetry.
 There are    30 symmetry adapted cartesian basis functions of AU  symmetry.
 There are    30 symmetry adapted basis functions of AG  symmetry.
 There are    30 symmetry adapted basis functions of AU  symmetry.
    60 basis functions,    98 primitive gaussians,    60 cartesian basis functions
     9 alpha electrons        9 beta electrons
       nuclear repulsion energy        42.1302460932 Hartrees.
 NAtoms=    8 NActive=    8 NUniq=    4 SFac= 4.00D+00 NAtFMM=   60 NAOKFM=F Big=F
 Integral buffers will be    131072 words long.
 Raffenetti 2 integral format.
 Two-electron integral symmetry is turned on.
 One-electron integrals computed using PRISM.
 NBasis=    60 RedAO= T EigKep=  5.80D-03  NBF=    30    30
 NBsUse=    60 1.00D-06 EigRej= -1.00D+00 NBFU=    30    30
 Initial guess from the checkpoint file:  "/scr/Gau-22870.chk"
 B after Tr=     0.000000    0.000000    0.000000
         Rot=    1.000000   -0.000001    0.000000   -0.000001 Ang=   0.00 deg.
 Initial guess orbital symmetries:
       Occupied  (AG) (AU) (AG) (AU) (AU) (AU) (AG) (AG) (AG)
       Virtual   (AG) (AG) (AG) (AG) (AG) (AG) (AG) (AG) (AG) (AG)
                 (AG) (AG) (AG) (AG) (AG) (AG) (AG) (AG) (AG) (AG)
                 (AG) (AG) (AG) (AG) (AG) (AU) (AU) (AU) (AU) (AU)
                 (AU) (AU) (AU) (AU) (AU) (AU) (AU) (AU) (AU) (AU)
                 (AU) (AU) (AU) (AU) (AU) (AU) (AU) (AU) (AU) (AU)
                 (AU)
 Keep R1 ints in memory in symmetry-blocked form, NReq=2591325.
 Requested convergence on RMS density matrix=1.00D-08 within 128 cycles.
 Requested convergence on MAX density matrix=1.00D-06.
 Requested convergence on             energy=1.00D-06.
 No special actions if energy rises.
 SCF Done:  E(RB3LYP) =  -79.8387404634     A.U. after    6 cycles
            NFock=  6  Conv=0.38D-08     -V/T= 2.0108
 Calling FoFJK, ICntrl=      2127 FMM=F ISym2X=1 I1Cent= 0 IOpClX= 0 NMat=1 NMatS=1 NMatT=0.
 ***** Axes restored to original set *****
 -------------------------------------------------------------------
 Center     Atomic                   Forces (Hartrees/Bohr)
 Number     Number              X              Y              Z
 -------------------------------------------------------------------
      1        6           0.000128139   -0.000200379   -0.000001622
      2        6          -0.000128139    0.000200379    0.000001622
      3        1           0.000034354    0.000006149   -0.000020352
      4        1           0.000003688   -0.000011480    0.000042643
      5        1          -0.000027527   -0.000029953   -0.000019071
      6        1           0.000027527    0.000029953    0.000019071
      7        1          -0.000003688    0.000011480   -0.000042643
      8        1          -0.000034354   -0.000006149    0.000020352
 -------------------------------------------------------------------
 Cartesian Forces:  Max     0.000200379 RMS     0.000071989

 GradGradGradGradGradGradGradGradGradGradGradGradGradGradGradGradGradGrad
 Berny optimization.
 Using GEDIIS/GDIIS optimizer.
 FormGI is forming the generalized inverse of G from B-inverse, IUseBI=4.
 Internal  Forces:  Max     0.000273284 RMS     0.000055398
 Search for a local minimum.
 Step number   3 out of a maximum of   38
 All quantities printed in internal units (Hartrees-Bohrs-Radians)
 Mixed Optimization -- En-DIIS/RFO-DIIS
 Swapping is turned off.
 Update second derivatives using D2CorX and points    1    2    3
 DE= -2.44D-05 DEPred=-2.27D-05 R= 1.07D+00
 TightC=F SS=  1.41D+00  RLast= 1.65D-02 DXNew= 5.0454D-01 4.9530D-02
 Trust test= 1.07D+00 RLast= 1.65D-02 DXMaxT set to 3.00D-01
 ITU=  1  1  0
     Eigenvalues ---    0.00280   0.05397   0.05397   0.05397   0.05397
     Eigenvalues ---    0.12233   0.16000   0.16000   0.16000   0.16000
     Eigenvalues ---    0.16000   0.30471   0.34549   0.34549   0.34549
     Eigenvalues ---    0.34549   0.34549   0.35188
 En-DIIS/RFO-DIIS IScMMF=        0 using points:     3    2
 RFO step:  Lambda=-1.61133291D-07.
 DidBck=F Rises=F RFO-DIIS coefs:    1.06967   -0.06967
 Iteration  1 RMS(Cart)=  0.00020823 RMS(Int)=  0.00000023
 Iteration  2 RMS(Cart)=  0.00000002 RMS(Int)=  0.00000023
 ClnCor:  largest displacement from symmetrization is 9.54D-09 for atom     8.
 Variable       Old X    -DE/DX   Delta X   Delta X   Delta X     New X
                                 (Linear)    (Quad)   (Total)
    R1        2.89230  -0.00027  -0.00080  -0.00023  -0.00103   2.89128
    R2        2.06945  -0.00004   0.00009  -0.00018  -0.00009   2.06936
    R3        2.06949  -0.00004   0.00008  -0.00018  -0.00010   2.06939
    R4        2.06949  -0.00004   0.00008  -0.00018  -0.00010   2.06940
    R5        2.06949  -0.00004   0.00008  -0.00018  -0.00010   2.06940
    R6        2.06949  -0.00004   0.00008  -0.00018  -0.00010   2.06939
    R7        2.06945  -0.00004   0.00009  -0.00018  -0.00009   2.06936
    A1        1.94385   0.00000   0.00023  -0.00008   0.00014   1.94400
    A2        1.94380   0.00000   0.00022  -0.00008   0.00015   1.94395
    A3        1.94383   0.00000   0.00022  -0.00008   0.00014   1.94397
    A4        1.87634   0.00000  -0.00024   0.00008  -0.00016   1.87618
    A5        1.87632   0.00000  -0.00024   0.00008  -0.00016   1.87616
    A6        1.87624   0.00000  -0.00024   0.00010  -0.00014   1.87610
    A7        1.94383   0.00000   0.00022  -0.00008   0.00014   1.94397
    A8        1.94380   0.00000   0.00022  -0.00008   0.00015   1.94395
    A9        1.94385   0.00000   0.00023  -0.00008   0.00014   1.94400
   A10        1.87624   0.00000  -0.00024   0.00010  -0.00014   1.87610
   A11        1.87632   0.00000  -0.00024   0.00008  -0.00016   1.87616
   A12        1.87634   0.00000  -0.00024   0.00008  -0.00016   1.87618
    D1        1.04716   0.00000   0.00000   0.00001   0.00001   1.04716
    D2       -1.04714   0.00000   0.00000  -0.00001  -0.00001  -1.04715
    D3        3.14159   0.00000   0.00000   0.00000   0.00000   3.14159
    D4       -1.04729   0.00000   0.00000   0.00002   0.00001  -1.04728
    D5        3.14159   0.00000   0.00000   0.00000   0.00000   3.14159
    D6        1.04714   0.00000   0.00000   0.00001   0.00001   1.04715
    D7        3.14159   0.00000   0.00000   0.00000   0.00000   3.14159
    D8        1.04729   0.00000   0.00000  -0.00002  -0.00001   1.04728
    D9       -1.04716   0.00000   0.00000  -0.00001  -0.00001  -1.04716
         Item               Value     Threshold  Converged?
 Maximum Force            0.000273     0.000450     YES
 RMS     Force            0.000055     0.000300     YES
 Maximum Displacement     0.000433     0.001800     YES
 RMS     Displacement     0.000208     0.001200     YES
 Predicted change in Energy=-1.567093D-07
 Optimization completed.
    -- Stationary point found.
                           ----------------------------
                           !   Optimized Parameters   !
                           ! (Angstroms and Degrees)  !
 --------------------------                            --------------------------
 ! Name  Definition              Value          Derivative Info.                !
 --------------------------------------------------------------------------------
 ! R1    R(1,2)                  1.5305         -DE/DX =   -0.0003              !
 ! R2    R(1,3)                  1.0951         -DE/DX =    0.0                 !
 ! R3    R(1,4)                  1.0951         -DE/DX =    0.0                 !
 ! R4    R(1,5)                  1.0951         -DE/DX =    0.0                 !
 ! R5    R(2,6)                  1.0951         -DE/DX =    0.0                 !
 ! R6    R(2,7)                  1.0951         -DE/DX =    0.0                 !
 ! R7    R(2,8)                  1.0951         -DE/DX =    0.0                 !
 ! A1    A(2,1,3)              111.3747         -DE/DX =    0.0                 !
 ! A2    A(2,1,4)              111.3716         -DE/DX =    0.0                 !
 ! A3    A(2,1,5)              111.3731         -DE/DX =    0.0                 !
 ! A4    A(3,1,4)              107.5066         -DE/DX =    0.0                 !
 ! A5    A(3,1,5)              107.5053         -DE/DX =    0.0                 !
 ! A6    A(4,1,5)              107.5007         -DE/DX =    0.0                 !
 ! A7    A(1,2,6)              111.3731         -DE/DX =    0.0                 !
 ! A8    A(1,2,7)              111.3716         -DE/DX =    0.0                 !
 ! A9    A(1,2,8)              111.3747         -DE/DX =    0.0                 !
 ! A10   A(6,2,7)              107.5007         -DE/DX =    0.0                 !
 ! A11   A(6,2,8)              107.5053         -DE/DX =    0.0                 !
 ! A12   A(7,2,8)              107.5066         -DE/DX =    0.0                 !
 ! D1    D(3,1,2,6)             59.9976         -DE/DX =    0.0                 !
 ! D2    D(3,1,2,7)            -59.9969         -DE/DX =    0.0                 !
 ! D3    D(3,1,2,8)            180.0            -DE/DX =    0.0                 !
 ! D4    D(4,1,2,6)            -60.0055         -DE/DX =    0.0                 !
 ! D5    D(4,1,2,7)            180.0            -DE/DX =    0.0                 !
 ! D6    D(4,1,2,8)             59.9969         -DE/DX =    0.0                 !
 ! D7    D(5,1,2,6)            180.0            -DE/DX =    0.0                 !
 ! D8    D(5,1,2,7)             60.0055         -DE/DX =    0.0                 !
 ! D9    D(5,1,2,8)            -59.9976         -DE/DX =    0.0                 !
 --------------------------------------------------------------------------------
 GradGradGradGradGradGradGradGradGradGradGradGradGradGradGradGradGradGrad

                          Input orientation:                          
 ---------------------------------------------------------------------
 Center     Atomic      Atomic             Coordinates (Angstroms)
 Number     Number       Type             X           Y           Z
 ---------------------------------------------------------------------
      1          6           0       -1.768207    1.602457    0.000014
      2          6           0       -0.949973    0.308993   -0.000014
      3          1           0       -2.708085    1.480169    0.548589
      4          1           0       -2.019755    1.915581   -1.018799
      5          1           0       -1.216789    2.423530    0.470209
      6          1           0       -1.501391   -0.512080   -0.470209
      7          1           0       -0.698425   -0.004131    1.018799
      8          1           0       -0.010095    0.431281   -0.548589
 ---------------------------------------------------------------------
                    Distance matrix (angstroms):
                    1          2          3          4          5
     1  C    0.000000
     2  C    1.530542   0.000000
     3  H    1.095107   2.182563   0.000000
     4  H    1.095128   2.182540   1.766377   0.000000
     5  H    1.095128   2.182560   1.766363   1.766328   0.000000
     6  H    2.182560   1.095128   2.542266   2.542280   3.095673
     7  H    2.182540   1.095128   2.542239   3.095645   2.542280
     8  H    2.182563   1.095107   3.095662   2.542239   2.542266
                    6          7          8
     6  H    0.000000
     7  H    1.766328   0.000000
     8  H    1.766363   1.766377   0.000000
 Stoichiometry    C2H6
 Framework group  CI[X(C2H6)]
 Deg. of freedom     9
 Full point group                 CI      NOp   2
 Largest Abelian subgroup         CI      NOp   2
 Largest concise Abelian subgroup CI      NOp   2
                         Standard orientation:                         
 ---------------------------------------------------------------------
 Center     Atomic      Atomic             Coordinates (Angstroms)
 Number     Number       Type             X           Y           Z
 ---------------------------------------------------------------------
      1          6           0       -0.409117    0.646732    0.000014
      2          6           0        0.409117   -0.646732   -0.000014
      3          1           0       -1.348995    0.524444    0.548589
      4          1           0       -0.660665    0.959856   -1.018799
      5          1           0        0.142301    1.467805    0.470209
      6          1           0       -0.142301   -1.467805   -0.470209
      7          1           0        0.660665   -0.959856    1.018799
      8          1           0        1.348995   -0.524444   -0.548589
 ---------------------------------------------------------------------
 Rotational constants (GHZ):     80.3610483     19.8984099     19.8982457

 **********************************************************************

            Population analysis using the SCF density.

 **********************************************************************

 Orbital symmetries:
       Occupied  (AG) (AU) (AG) (AU) (AU) (AU) (AG) (AG) (AG)
       Virtual   (AG) (AU) (AU) (AU) (AG) (AG) (AU) (AG) (AU) (AU)
                 (AG) (AG) (AU) (AU) (AU) (AG) (AG) (AG) (AU) (AG)
                 (AU) (AU) (AU) (AG) (AG) (AG) (AU) (AG) (AU) (AU)
                 (AG) (AG) (AU) (AU) (AU) (AG) (AG) (AG) (AU) (AU)
                 (AU) (AG) (AG) (AG) (AU) (AG) (AG) (AU) (AU) (AG)
                 (AU)
 The electronic state is 1-AG.
 Alpha  occ. eigenvalues --  -10.17265 -10.17244  -0.74758  -0.61194  -0.42940
 Alpha  occ. eigenvalues --   -0.42939  -0.36303  -0.33922  -0.33920
 Alpha virt. eigenvalues --    0.10498   0.15612   0.16395   0.16396   0.19004
 Alpha virt. eigenvalues --    0.19006   0.24186   0.50815   0.53947   0.53947
 Alpha virt. eigenvalues --    0.61917   0.61919   0.66588   0.86649   0.86650
 Alpha virt. eigenvalues --    0.88155   0.89477   0.89479   0.95358   1.06482
 Alpha virt. eigenvalues --    1.32784   1.32785   1.44056   1.67835   1.67839
 Alpha virt. eigenvalues --    1.86063   2.05739   2.05784   2.06515   2.06516
 Alpha virt. eigenvalues --    2.08735   2.08736   2.26637   2.26639   2.33834
 Alpha virt. eigenvalues --    2.47964   2.47970   2.68980   2.77378   2.79941
 Alpha virt. eigenvalues --    2.79944   2.90614   2.90616   3.14644   3.23751
 Alpha virt. eigenvalues --    3.39665   3.39671   3.52109   3.52111   4.32111
 Alpha virt. eigenvalues --    4.57952
          Condensed to atoms (all electrons):
               1          2          3          4          5          6
     1  C    4.871541   0.373851   0.391225   0.391221   0.391222  -0.034796
     2  C    0.373851   4.871541  -0.034796  -0.034797  -0.034796   0.391222
     3  H    0.391225  -0.034796   0.608058  -0.033103  -0.033105  -0.004010
     4  H    0.391221  -0.034797  -0.033103   0.608075  -0.033108  -0.004011
     5  H    0.391222  -0.034796  -0.033105  -0.033108   0.608071   0.004847
     6  H   -0.034796   0.391222  -0.004010  -0.004011   0.004847   0.608071
     7  H   -0.034797   0.391221  -0.004010   0.004848  -0.004011  -0.033108
     8  H   -0.034796   0.391225   0.004847  -0.004010  -0.004010  -0.033105
               7          8
     1  C   -0.034797  -0.034796
     2  C    0.391221   0.391225
     3  H   -0.004010   0.004847
     4  H    0.004848  -0.004010
     5  H   -0.004011  -0.004010
     6  H   -0.033108  -0.033105
     7  H    0.608075  -0.033103
     8  H   -0.033103   0.608058
 Mulliken charges:
               1
     1  C   -0.314671
     2  C   -0.314671
     3  H    0.104893
     4  H    0.104887
     5  H    0.104891
     6  H    0.104891
     7  H    0.104887
     8  H    0.104893
 Sum of Mulliken charges =   0.00000
 Mulliken charges with hydrogens summed into heavy atoms:
               1
     1  C    0.000000
     2  C    0.000000
 Electronic spatial extent (au):  <R**2>=            109.6087
 Charge=              0.0000 electrons
 Dipole moment (field-independent basis, Debye):
    X=              0.0000    Y=              0.0000    Z=              0.0000  Tot=              0.0000
 Quadrupole moment (field-independent basis, Debye-Ang):
   XX=            -14.8543   YY=            -15.0482   ZZ=            -14.7250
   XY=              0.2046   XZ=             -0.0002   YZ=             -0.0001
 Traceless Quadrupole moment (field-independent basis, Debye-Ang):
   XX=              0.0215   YY=             -0.1724   ZZ=              0.1508
   XY=              0.2046   XZ=             -0.0002   YZ=             -0.0001
 Octapole moment (field-independent basis, Debye-Ang**2):
  XXX=              0.0000  YYY=              0.0000  ZZZ=              0.0000  XYY=              0.0000
  XXY=              0.0000  XXZ=              0.0000  XZZ=              0.0000  YZZ=              0.0000
  YYZ=              0.0000  XYZ=              0.0000
 Hexadecapole moment (field-independent basis, Debye-Ang**3):
 XXXX=            -46.0083 YYYY=            -73.0166 ZZZZ=            -28.8619 XXXY=             13.7749
 XXXZ=             -1.3694 YYYX=             15.0798 YYYZ=              0.8659 ZZZX=              0.6392
 ZZZY=             -1.0106 XXYY=            -20.4108 XXZZ=            -12.2147 YYZZ=            -16.6097
 XXYZ=              0.1442 YYXZ=              0.7302 ZZXY=              4.2610
 N-N= 4.213024609325D+01 E-N=-2.680936599869D+02  KE= 7.898590055584D+01
 Symmetry AG   KE= 4.100871515564D+01
 Symmetry AU   KE= 3.797718540020D+01
 1\1\GINC-N0298\FOpt\RB3LYP\6-31G(d,p)\C2H6\TAIYUPAN\23-Feb-2017\0\\#n 
 B3LYP/6-31G(d,p) Opt\\CH3_B3LYP/6-31G(d)\\0,1\C,-1.7682074535,1.602457
 0367,0.0000144911\C,-0.9499725465,0.3089929633,-0.0000144911\H,-2.7080
 854559,1.4801694318,0.5485890406\H,-2.019754873,1.9155811155,-1.018799
 3578\H,-1.2167887008,2.4235296633,0.4702094665\H,-1.5013912992,-0.5120
 796633,-0.4702094665\H,-0.698425127,-0.0041311155,1.0187993578\H,-0.01
 00945441,0.4312805682,-0.5485890406\\Version=ES64L-G09RevE.01\State=1-
 AG\HF=-79.8387405\RMSD=3.751e-09\RMSF=7.199e-05\Dipole=0.,0.,0.\Quadru
 pole=0.0160059,-0.1281506,0.1121447,0.15209,-0.0001556,-0.0000414\PG=C
 I [X(C2H6)]\\@


 UNDER MOST GREENE GRASSE LY MOST GREATE SNAKES.
 -- PROVERBS AND REASONS OF THE YEAR 1585
           AS REPRINTED IN PAISLEY MAGAZINE 1828.
 Job cpu time:       0 days  0 hours  0 minutes 35.2 seconds.
 File lengths (MBytes):  RWF=      5 Int=      0 D2E=      0 Chk=      1 Scr=      1
 Normal termination of Gaussian 09 at Thu Feb 23 18:24:50 2017.
