 Entering Gaussian System, Link 0=g09
 Input=CH3_M_6Gdp.com
 Output=CH3_M_6Gdp.log
 Initial command:
 /sw/contrib/gaussian/g09/E01/g09/l1.exe "/scr/Gau-11959.inp" -scrdir="/scr/"
 Entering Link 1 = /sw/contrib/gaussian/g09/E01/g09/l1.exe PID=     11960.
  
 Copyright (c) 1988,1990,1992,1993,1995,1998,2003,2009,2015,
            Gaussian, Inc.  All Rights Reserved.
  
 This is part of the Gaussian(R) 09 program.  It is based on
 the Gaussian(R) 03 system (copyright 2003, Gaussian, Inc.),
 the Gaussian(R) 98 system (copyright 1998, Gaussian, Inc.),
 the Gaussian(R) 94 system (copyright 1995, Gaussian, Inc.),
 the Gaussian 92(TM) system (copyright 1992, Gaussian, Inc.),
 the Gaussian 90(TM) system (copyright 1990, Gaussian, Inc.),
 the Gaussian 88(TM) system (copyright 1988, Gaussian, Inc.),
 the Gaussian 86(TM) system (copyright 1986, Carnegie Mellon
 University), and the Gaussian 82(TM) system (copyright 1983,
 Carnegie Mellon University). Gaussian is a federally registered
 trademark of Gaussian, Inc.
  
 This software contains proprietary and confidential information,
 including trade secrets, belonging to Gaussian, Inc.
  
 This software is provided under written license and may be
 used, copied, transmitted, or stored only in accord with that
 written license.
  
 The following legend is applicable only to US Government
 contracts under FAR:
  
                    RESTRICTED RIGHTS LEGEND
  
 Use, reproduction and disclosure by the US Government is
 subject to restrictions as set forth in subparagraphs (a)
 and (c) of the Commercial Computer Software - Restricted
 Rights clause in FAR 52.227-19.
  
 Gaussian, Inc.
 340 Quinnipiac St., Bldg. 40, Wallingford CT 06492
  
  
 ---------------------------------------------------------------
 Warning -- This program may not be used in any manner that
 competes with the business of Gaussian, Inc. or will provide
 assistance to any competitor of Gaussian, Inc.  The licensee
 of this program is prohibited from giving any competitor of
 Gaussian, Inc. access to this program.  By using this program,
 the user acknowledges that Gaussian, Inc. is engaged in the
 business of creating and licensing software in the field of
 computational chemistry and represents and warrants to the
 licensee that it is not a competitor of Gaussian, Inc. and that
 it will not use this program in any manner prohibited above.
 ---------------------------------------------------------------
  

 Cite this work as:
 Gaussian 09, Revision E.01,
 M. J. Frisch, G. W. Trucks, H. B. Schlegel, G. E. Scuseria, 
 M. A. Robb, J. R. Cheeseman, G. Scalmani, V. Barone, B. Mennucci, 
 G. A. Petersson, H. Nakatsuji, M. Caricato, X. Li, H. P. Hratchian, 
 A. F. Izmaylov, J. Bloino, G. Zheng, J. L. Sonnenberg, M. Hada, 
 M. Ehara, K. Toyota, R. Fukuda, J. Hasegawa, M. Ishida, T. Nakajima, 
 Y. Honda, O. Kitao, H. Nakai, T. Vreven, J. A. Montgomery, Jr., 
 J. E. Peralta, F. Ogliaro, M. Bearpark, J. J. Heyd, E. Brothers, 
 K. N. Kudin, V. N. Staroverov, T. Keith, R. Kobayashi, J. Normand, 
 K. Raghavachari, A. Rendell, J. C. Burant, S. S. Iyengar, J. Tomasi, 
 M. Cossi, N. Rega, J. M. Millam, M. Klene, J. E. Knox, J. B. Cross, 
 V. Bakken, C. Adamo, J. Jaramillo, R. Gomperts, R. E. Stratmann, 
 O. Yazyev, A. J. Austin, R. Cammi, C. Pomelli, J. W. Ochterski, 
 R. L. Martin, K. Morokuma, V. G. Zakrzewski, G. A. Voth, 
 P. Salvador, J. J. Dannenberg, S. Dapprich, A. D. Daniels, 
 O. Farkas, J. B. Foresman, J. V. Ortiz, J. Cioslowski, 
 and D. J. Fox, Gaussian, Inc., Wallingford CT, 2013.
 
 ******************************************
 Gaussian 09:  ES64L-G09RevE.01 30-Nov-2015
                23-Feb-2017 
 ******************************************
 %NProcShared=8
 Will use up to    8 processors via shared memory.
 ---------------------
 #n MP2/6-31G(d,p) Opt
 ---------------------
 1/18=20,19=15,38=1/1,3;
 2/9=110,12=2,17=6,18=5,40=1/2;
 3/5=1,6=6,7=101,11=9,16=1,25=1,30=1,71=1/1,2,3;
 4//1;
 5/5=2,38=5/2;
 8/6=4,10=2/1;
 9/15=2,16=-3/6;
 10/5=1/2;
 6/7=2,8=2,9=2,10=2/1;
 7/12=2/1,2,3,16;
 1/18=20,19=15/3(2);
 2/9=110/2;
 99//99;
 2/9=110/2;
 3/5=1,6=6,7=101,11=9,16=1,25=1,30=1,71=1/1,2,3;
 4/5=5,16=3,69=1/1;
 5/5=2,38=5/2;
 8/6=4,10=2/1;
 9/15=2,16=-3/6;
 10/5=1/2;
 7/12=2/1,2,3,16;
 1/18=20,19=15/3(-8);
 2/9=110/2;
 6/7=2,8=2,9=2,10=2/1;
 99//99;
 ----------------
 CH3_MP2/6-31G(d)
 ----------------
 Symbolic Z-matrix:
 Charge =  0 Multiplicity = 1
 C                    -1.76985   1.60508   0. 
 C                    -0.94833   0.30637   0. 
 H                    -2.70278   1.46556   0.5507 
 H                    -2.01181   1.90264  -1.02275 
 H                    -1.2057    2.41255   0.47205 
 H                    -1.51248  -0.5011   -0.47205 
 H                    -0.70637   0.00881   1.02275 
 H                    -0.0154    0.44589  -0.5507 
 

 GradGradGradGradGradGradGradGradGradGradGradGradGradGradGradGradGradGrad
 Berny optimization.
 Initialization pass.
                           ----------------------------
                           !    Initial Parameters    !
                           ! (Angstroms and Degrees)  !
 --------------------------                            --------------------------
 ! Name  Definition              Value          Derivative Info.                !
 --------------------------------------------------------------------------------
 ! R1    R(1,2)                  1.5367         estimate D2E/DX2                !
 ! R2    R(1,3)                  1.0923         estimate D2E/DX2                !
 ! R3    R(1,4)                  1.0923         estimate D2E/DX2                !
 ! R4    R(1,5)                  1.0923         estimate D2E/DX2                !
 ! R5    R(2,6)                  1.0923         estimate D2E/DX2                !
 ! R6    R(2,7)                  1.0923         estimate D2E/DX2                !
 ! R7    R(2,8)                  1.0923         estimate D2E/DX2                !
 ! A1    A(2,1,3)              110.4046         estimate D2E/DX2                !
 ! A2    A(2,1,4)              110.4044         estimate D2E/DX2                !
 ! A3    A(2,1,5)              110.404          estimate D2E/DX2                !
 ! A4    A(3,1,4)              108.5221         estimate D2E/DX2                !
 ! A5    A(3,1,5)              108.5221         estimate D2E/DX2                !
 ! A6    A(4,1,5)              108.5224         estimate D2E/DX2                !
 ! A7    A(1,2,6)              110.404          estimate D2E/DX2                !
 ! A8    A(1,2,7)              110.4044         estimate D2E/DX2                !
 ! A9    A(1,2,8)              110.4046         estimate D2E/DX2                !
 ! A10   A(6,2,7)              108.5224         estimate D2E/DX2                !
 ! A11   A(6,2,8)              108.5221         estimate D2E/DX2                !
 ! A12   A(7,2,8)              108.5221         estimate D2E/DX2                !
 ! D1    D(3,1,2,6)             60.0001         estimate D2E/DX2                !
 ! D2    D(3,1,2,7)            -59.9999         estimate D2E/DX2                !
 ! D3    D(3,1,2,8)            180.0            estimate D2E/DX2                !
 ! D4    D(4,1,2,6)            -59.9999         estimate D2E/DX2                !
 ! D5    D(4,1,2,7)            180.0            estimate D2E/DX2                !
 ! D6    D(4,1,2,8)             59.9999         estimate D2E/DX2                !
 ! D7    D(5,1,2,6)           -180.0            estimate D2E/DX2                !
 ! D8    D(5,1,2,7)             59.9999         estimate D2E/DX2                !
 ! D9    D(5,1,2,8)            -60.0001         estimate D2E/DX2                !
 --------------------------------------------------------------------------------
 Trust Radius=3.00D-01 FncErr=1.00D-07 GrdErr=1.00D-07
 Number of steps in this run=     38 maximum allowed number of steps=    100.
 GradGradGradGradGradGradGradGradGradGradGradGradGradGradGradGradGradGrad

                          Input orientation:                          
 ---------------------------------------------------------------------
 Center     Atomic      Atomic             Coordinates (Angstroms)
 Number     Number       Type             X           Y           Z
 ---------------------------------------------------------------------
      1          6           0       -1.769850    1.605080    0.000000
      2          6           0       -0.948330    0.306370    0.000000
      3          1           0       -2.702780    1.465560    0.550700
      4          1           0       -2.011810    1.902640   -1.022750
      5          1           0       -1.205700    2.412550    0.472050
      6          1           0       -1.512480   -0.501100   -0.472050
      7          1           0       -0.706370    0.008810    1.022750
      8          1           0       -0.015400    0.445890   -0.550700
 ---------------------------------------------------------------------
                    Distance matrix (angstroms):
                    1          2          3          4          5
     1  C    0.000000
     2  C    1.536731   0.000000
     3  H    1.092289   2.173726   0.000000
     4  H    1.092293   2.173726   1.773196   0.000000
     5  H    1.092293   2.173721   1.773196   1.773203   0.000000
     6  H    2.173721   1.092293   2.516065   2.516062   3.078116
     7  H    2.173726   1.092293   2.516069   3.078122   2.516062
     8  H    2.173726   1.092289   3.078120   2.516069   2.516065
                    6          7          8
     6  H    0.000000
     7  H    1.773203   0.000000
     8  H    1.773196   1.773196   0.000000
 This structure is nearly, but not quite of a higher symmetry.
 Consider Symm=Loose if the higher symmetry is desired.
 Stoichiometry    C2H6
 Framework group  CI[X(C2H6)]
 Deg. of freedom     9
 Full point group                 CI      NOp   2
 Largest Abelian subgroup         CI      NOp   2
 Largest concise Abelian subgroup CI      NOp   2
                         Standard orientation:                         
 ---------------------------------------------------------------------
 Center     Atomic      Atomic             Coordinates (Angstroms)
 Number     Number       Type             X           Y           Z
 ---------------------------------------------------------------------
      1          6           0       -0.410760    0.649355    0.000000
      2          6           0        0.410760   -0.649355    0.000000
      3          1           0       -1.343690    0.509835    0.550700
      4          1           0       -0.652720    0.946915   -1.022750
      5          1           0        0.153390    1.456825    0.472050
      6          1           0       -0.153390   -1.456825   -0.472050
      7          1           0        0.652720   -0.946915    1.022750
      8          1           0        1.343690   -0.509835   -0.550700
 ---------------------------------------------------------------------
 Rotational constants (GHZ):     79.7420612     19.9566490     19.9566228
 Standard basis: 6-31G(d,p) (6D, 7F)
 There are    30 symmetry adapted cartesian basis functions of AG  symmetry.
 There are    30 symmetry adapted cartesian basis functions of AU  symmetry.
 There are    30 symmetry adapted basis functions of AG  symmetry.
 There are    30 symmetry adapted basis functions of AU  symmetry.
    60 basis functions,    98 primitive gaussians,    60 cartesian basis functions
     9 alpha electrons        9 beta electrons
       nuclear repulsion energy        42.1696170358 Hartrees.
 NAtoms=    8 NActive=    8 NUniq=    4 SFac= 4.00D+00 NAtFMM=   60 NAOKFM=F Big=F
 Integral buffers will be    131072 words long.
 Raffenetti 1 integral format.
 Two-electron integral symmetry is turned on.
 One-electron integrals computed using PRISM.
 NBasis=    60 RedAO= T EigKep=  5.73D-03  NBF=    30    30
 NBsUse=    60 1.00D-06 EigRej= -1.00D+00 NBFU=    30    30
 ExpMin= 1.61D-01 ExpMax= 3.05D+03 ExpMxC= 4.57D+02 IAcc=1 IRadAn=         1 AccDes= 0.00D+00
 Harris functional with IExCor=  205 and IRadAn=       1 diagonalized for initial guess.
 HarFok:  IExCor=  205 AccDes= 0.00D+00 IRadAn=         1 IDoV= 1 UseB2=F ITyADJ=14
 ICtDFT=  3500011 ScaDFX=  1.000000  1.000000  1.000000  1.000000
 FoFCou: FMM=F IPFlag=           0 FMFlag=      100000 FMFlg1=           0
         NFxFlg=           0 DoJE=T BraDBF=F KetDBF=T FulRan=T
         wScrn=  0.000000 ICntrl=     500 IOpCl=  0 I1Cent=   200000004 NGrid=           0
         NMat0=    1 NMatS0=      1 NMatT0=    0 NMatD0=    1 NMtDS0=    0 NMtDT0=    0
 Petite list used in FoFCou.
 Initial guess orbital symmetries:
       Occupied  (AG) (AU) (AG) (AU) (AU) (AU) (AG) (AG) (AG)
       Virtual   (AG) (AU) (AU) (AU) (AG) (AG) (AU) (AG) (AU) (AU)
                 (AG) (AG) (AU) (AU) (AU) (AG) (AG) (AG) (AU) (AG)
                 (AU) (AU) (AU) (AG) (AG) (AG) (AU) (AU) (AU) (AG)
                 (AG) (AG) (AU) (AU) (AU) (AG) (AG) (AG) (AU) (AU)
                 (AU) (AG) (AG) (AG) (AU) (AG) (AG) (AU) (AU) (AG)
                 (AU)
 The electronic state of the initial guess is 1-AG.
 Keep R1 ints in memory in symmetry-blocked form, NReq=2557303.
 Requested convergence on RMS density matrix=1.00D-08 within 128 cycles.
 Requested convergence on MAX density matrix=1.00D-06.
 Requested convergence on             energy=1.00D-06.
 No special actions if energy rises.
 SCF Done:  E(RHF) =  -79.2378304586     A.U. after    9 cycles
            NFock=  9  Conv=0.25D-08     -V/T= 2.0014
 ExpMin= 1.61D-01 ExpMax= 3.05D+03 ExpMxC= 4.57D+02 IAcc=3 IRadAn=         5 AccDes= 0.00D+00
 HarFok:  IExCor=  205 AccDes= 0.00D+00 IRadAn=         5 IDoV=-2 UseB2=F ITyADJ=14
 ICtDFT= 12500011 ScaDFX=  1.000000  1.000000  1.000000  1.000000
 Range of M.O.s used for correlation:     3    60
 NBasis=    60 NAE=     9 NBE=     9 NFC=     2 NFV=     0
 NROrb=     58 NOA=     7 NOB=     7 NVA=    51 NVB=    51
 Fully direct method using O(ONN) memory.
 JobTyp=1 Pass  1:  I=   3 to   9 NPSUse=  2 ParTrn=F ParDer=T DoDerP=T.
 Spin components of T(2) and E(2):
     alpha-alpha T2 =       0.1020083212D-01 E2=     -0.3071691382D-01
     alpha-beta  T2 =       0.7638451795D-01 E2=     -0.2438752936D+00
     beta-beta   T2 =       0.1020083212D-01 E2=     -0.3071691382D-01
 ANorm=    0.1047275600D+01
 E2 =    -0.3053091212D+00 EUMP2 =    -0.79543139579819D+02
          IDoAtm=11111111
          Differentiating once with respect to electric field.
                with respect to dipole field.
          Differentiating once with respect to nuclear coordinates.
 Keep R1 ints in memory in symmetry-blocked form, NReq=2539264.
          There are     1 degrees of freedom in the 1st order CPHF.  IDoFFX=0 NUNeed=     1.
 LinEq1:  Iter=  0 NonCon=     1 RMS=3.28D-03 Max=2.35D-02 NDo=     1
 AX will form     1 AO Fock derivatives at one time.
 LinEq1:  Iter=  1 NonCon=     1 RMS=1.11D-03 Max=1.35D-02 NDo=     1
 LinEq1:  Iter=  2 NonCon=     1 RMS=1.70D-04 Max=1.61D-03 NDo=     1
 LinEq1:  Iter=  3 NonCon=     1 RMS=2.35D-05 Max=2.08D-04 NDo=     1
 LinEq1:  Iter=  4 NonCon=     1 RMS=2.32D-06 Max=1.63D-05 NDo=     1
 LinEq1:  Iter=  5 NonCon=     1 RMS=1.95D-07 Max=1.44D-06 NDo=     1
 LinEq1:  Iter=  6 NonCon=     1 RMS=1.30D-08 Max=8.23D-08 NDo=     1
 LinEq1:  Iter=  7 NonCon=     1 RMS=7.68D-10 Max=6.64D-09 NDo=     1
 LinEq1:  Iter=  8 NonCon=     0 RMS=7.01D-11 Max=7.66D-10 NDo=     1
 Linear equations converged to 1.000D-10 1.000D-09 after     8 iterations.
 End of Minotr F.D. properties file   721 does not exist.
 End of Minotr F.D. properties file   722 does not exist.
 End of Minotr F.D. properties file   788 does not exist.

 **********************************************************************

            Population analysis using the SCF density.

 **********************************************************************

 Orbital symmetries:
       Occupied  (AG) (AU) (AG) (AU) (AU) (AU) (AG) (AG) (AG)
       Virtual   (AG) (AU) (AU) (AU) (AG) (AG) (AU) (AG) (AU) (AU)
                 (AG) (AG) (AU) (AU) (AU) (AG) (AG) (AG) (AU) (AG)
                 (AU) (AU) (AU) (AG) (AG) (AG) (AU) (AG) (AU) (AU)
                 (AG) (AG) (AU) (AU) (AU) (AG) (AG) (AG) (AU) (AU)
                 (AU) (AG) (AG) (AG) (AU) (AG) (AG) (AU) (AU) (AG)
                 (AU)
 The electronic state is 1-AG.
 Alpha  occ. eigenvalues --  -11.21371 -11.21314  -1.01552  -0.83901  -0.59611
 Alpha  occ. eigenvalues --   -0.59611  -0.50159  -0.48667  -0.48667
 Alpha virt. eigenvalues --    0.24076   0.30274   0.31714   0.31714   0.33549
 Alpha virt. eigenvalues --    0.33549   0.40771   0.70614   0.73992   0.73992
 Alpha virt. eigenvalues --    0.82873   0.82874   0.93024   1.12862   1.12862
 Alpha virt. eigenvalues --    1.15899   1.16534   1.16534   1.22006   1.27624
 Alpha virt. eigenvalues --    1.58960   1.58960   1.68525   1.97160   1.97160
 Alpha virt. eigenvalues --    2.17105   2.35654   2.35730   2.38452   2.38452
 Alpha virt. eigenvalues --    2.39345   2.39345   2.58747   2.58747   2.65625
 Alpha virt. eigenvalues --    2.81238   2.81238   2.99891   3.08081   3.14050
 Alpha virt. eigenvalues --    3.14050   3.25786   3.25787   3.52055   3.62075
 Alpha virt. eigenvalues --    3.75836   3.75837   3.90385   3.90386   4.74581
 Alpha virt. eigenvalues --    5.00185
          Condensed to atoms (all electrons):
               1          2          3          4          5          6
     1  C    4.910667   0.329748   0.403544   0.403543   0.403543  -0.039300
     2  C    0.329748   4.910667  -0.039299  -0.039299  -0.039300   0.403543
     3  H    0.403544  -0.039299   0.587632  -0.030334  -0.030334  -0.003251
     4  H    0.403543  -0.039299  -0.030334   0.587633  -0.030333  -0.003251
     5  H    0.403543  -0.039300  -0.030334  -0.030333   0.587634   0.004243
     6  H   -0.039300   0.403543  -0.003251  -0.003251   0.004243   0.587634
     7  H   -0.039299   0.403543  -0.003251   0.004243  -0.003251  -0.030333
     8  H   -0.039299   0.403544   0.004243  -0.003251  -0.003251  -0.030334
               7          8
     1  C   -0.039299  -0.039299
     2  C    0.403543   0.403544
     3  H   -0.003251   0.004243
     4  H    0.004243  -0.003251
     5  H   -0.003251  -0.003251
     6  H   -0.030333  -0.030334
     7  H    0.587633  -0.030334
     8  H   -0.030334   0.587632
 Mulliken charges:
               1
     1  C   -0.333146
     2  C   -0.333146
     3  H    0.111050
     4  H    0.111048
     5  H    0.111048
     6  H    0.111048
     7  H    0.111048
     8  H    0.111050
 Sum of Mulliken charges =   0.00000
 Mulliken charges with hydrogens summed into heavy atoms:
               1
     1  C    0.000000
     2  C    0.000000
 Electronic spatial extent (au):  <R**2>=            109.8520
 Charge=              0.0000 electrons
 Dipole moment (field-independent basis, Debye):
    X=              0.0000    Y=              0.0000    Z=              0.0000  Tot=              0.0000
 Quadrupole moment (field-independent basis, Debye-Ang):
   XX=            -15.1169   YY=            -15.4497   ZZ=            -14.8949
   XY=              0.3509   XZ=              0.0000   YZ=              0.0000
 Traceless Quadrupole moment (field-independent basis, Debye-Ang):
   XX=              0.0370   YY=             -0.2959   ZZ=              0.2589
   XY=              0.3509   XZ=              0.0000   YZ=              0.0000
 Octapole moment (field-independent basis, Debye-Ang**2):
  XXX=              0.0000  YYY=              0.0000  ZZZ=              0.0000  XYY=              0.0000
  XXY=              0.0000  XXZ=              0.0000  XZZ=              0.0000  YZZ=              0.0000
  YYZ=              0.0000  XYZ=              0.0000
 Hexadecapole moment (field-independent basis, Debye-Ang**3):
 XXXX=            -46.6600 YYYY=            -74.1467 ZZZZ=            -29.1811 XXXY=             14.0285
 XXXZ=             -1.4940 YYYX=             15.3641 YYYZ=              0.9450 ZZZX=              0.6972
 ZZZY=             -1.1023 XXYY=            -20.7118 XXZZ=            -12.3587 YYZZ=            -16.8561
 XXYZ=              0.1572 YYXZ=              0.7967 ZZXY=              4.3349
 N-N= 4.216961703580D+01 E-N=-2.680486141795D+02  KE= 7.913081884712D+01
 Symmetry AG   KE= 4.105186563058D+01
 Symmetry AU   KE= 3.807895321655D+01
 Calling FoFJK, ICntrl=  10002127 FMM=F ISym2X=1 I1Cent= 0 IOpClX= 0 NMat=1 NMatS=1 NMatT=0.
 ***** Axes restored to original set *****
 -------------------------------------------------------------------
 Center     Atomic                   Forces (Hartrees/Bohr)
 Number     Number              X              Y              Z
 -------------------------------------------------------------------
      1        6           0.003786527   -0.005979835   -0.000001066
      2        6          -0.003786527    0.005979835    0.000001066
      3        1           0.001851748    0.001960902   -0.001667492
      4        1          -0.000239844    0.000637346    0.003099749
      5        1          -0.002683635   -0.000907728   -0.001431078
      6        1           0.002683635    0.000907728    0.001431078
      7        1           0.000239844   -0.000637346   -0.003099749
      8        1          -0.001851748   -0.001960902    0.001667492
 -------------------------------------------------------------------
 Cartesian Forces:  Max     0.005979835 RMS     0.002586775

 GradGradGradGradGradGradGradGradGradGradGradGradGradGradGradGradGradGrad
 Berny optimization.
 FormGI is forming the generalized inverse of G from B-inverse, IUseBI=4.
 Internal  Forces:  Max     0.005076252 RMS     0.001933604
 Search for a local minimum.
 Step number   1 out of a maximum of   38
 All quantities printed in internal units (Hartrees-Bohrs-Radians)
 Mixed Optimization -- RFO/linear search
 Second derivative matrix not updated -- first step.
 ITU=  0
     Eigenvalues ---    0.00280   0.05575   0.05575   0.05575   0.05575
     Eigenvalues ---    0.16000   0.16000   0.16000   0.16000   0.16000
     Eigenvalues ---    0.16000   0.28810   0.34549   0.34549   0.34549
     Eigenvalues ---    0.34549   0.34549   0.34549
 RFO step:  Lambda=-4.37745111D-04 EMin= 2.80064107D-03
 Linear search not attempted -- first point.
 Iteration  1 RMS(Cart)=  0.00836738 RMS(Int)=  0.00008597
 Iteration  2 RMS(Cart)=  0.00009968 RMS(Int)=  0.00003621
 Iteration  3 RMS(Cart)=  0.00000001 RMS(Int)=  0.00003621
 ClnCor:  largest displacement from symmetrization is 3.97D-09 for atom     7.
 Variable       Old X    -DE/DX   Delta X   Delta X   Delta X     New X
                                 (Linear)    (Quad)   (Total)
    R1        2.90400  -0.00508   0.00000  -0.01759  -0.01759   2.88641
    R2        2.06413  -0.00267   0.00000  -0.00773  -0.00773   2.05640
    R3        2.06413  -0.00268   0.00000  -0.00773  -0.00773   2.05640
    R4        2.06413  -0.00268   0.00000  -0.00773  -0.00773   2.05640
    R5        2.06413  -0.00268   0.00000  -0.00773  -0.00773   2.05640
    R6        2.06413  -0.00268   0.00000  -0.00773  -0.00773   2.05640
    R7        2.06413  -0.00267   0.00000  -0.00773  -0.00773   2.05640
    A1        1.92692   0.00170   0.00000   0.01061   0.01055   1.93748
    A2        1.92692   0.00170   0.00000   0.01061   0.01056   1.93748
    A3        1.92691   0.00170   0.00000   0.01062   0.01056   1.93748
    A4        1.89407  -0.00176   0.00000  -0.01097  -0.01103   1.88304
    A5        1.89407  -0.00176   0.00000  -0.01097  -0.01103   1.88304
    A6        1.89407  -0.00176   0.00000  -0.01098  -0.01103   1.88304
    A7        1.92691   0.00170   0.00000   0.01062   0.01056   1.93748
    A8        1.92692   0.00170   0.00000   0.01061   0.01056   1.93748
    A9        1.92692   0.00170   0.00000   0.01061   0.01055   1.93748
   A10        1.89407  -0.00176   0.00000  -0.01098  -0.01103   1.88304
   A11        1.89407  -0.00176   0.00000  -0.01097  -0.01103   1.88304
   A12        1.89407  -0.00176   0.00000  -0.01097  -0.01103   1.88304
    D1        1.04720   0.00000   0.00000   0.00000   0.00000   1.04720
    D2       -1.04720   0.00000   0.00000   0.00000   0.00000  -1.04720
    D3        3.14159   0.00000   0.00000   0.00000   0.00000   3.14159
    D4       -1.04720   0.00000   0.00000   0.00000   0.00000  -1.04720
    D5        3.14159   0.00000   0.00000   0.00000   0.00000   3.14159
    D6        1.04720   0.00000   0.00000   0.00000   0.00000   1.04720
    D7        3.14159   0.00000   0.00000   0.00000   0.00000   3.14159
    D8        1.04720   0.00000   0.00000   0.00000   0.00000   1.04720
    D9       -1.04720   0.00000   0.00000   0.00000   0.00000  -1.04720
         Item               Value     Threshold  Converged?
 Maximum Force            0.005076     0.000450     NO 
 RMS     Force            0.001934     0.000300     NO 
 Maximum Displacement     0.015906     0.001800     NO 
 RMS     Displacement     0.008361     0.001200     NO 
 Predicted change in Energy=-2.193229D-04
 GradGradGradGradGradGradGradGradGradGradGradGradGradGradGradGradGradGrad

                          Input orientation:                          
 ---------------------------------------------------------------------
 Center     Atomic      Atomic             Coordinates (Angstroms)
 Number     Number       Type             X           Y           Z
 ---------------------------------------------------------------------
      1          6           0       -1.767359    1.601148    0.000000
      2          6           0       -0.950821    0.310302    0.000000
      3          1           0       -2.699648    1.473058    0.546454
      4          1           0       -2.014004    1.906771   -1.014859
      5          1           0       -1.214117    2.412750    0.468406
      6          1           0       -1.504063   -0.501300   -0.468406
      7          1           0       -0.704176    0.004679    1.014859
      8          1           0       -0.018532    0.438392   -0.546454
 ---------------------------------------------------------------------
                    Distance matrix (angstroms):
                    1          2          3          4          5
     1  C    0.000000
     2  C    1.527422   0.000000
     3  H    1.088200   2.170025   0.000000
     4  H    1.088200   2.170025   1.759520   0.000000
     5  H    1.088200   2.170026   1.759521   1.759520   0.000000
     6  H    2.170026   1.088200   2.521399   2.521399   3.074634
     7  H    2.170025   1.088200   2.521398   3.074632   2.521399
     8  H    2.170025   1.088200   3.074632   2.521398   2.521399
                    6          7          8
     6  H    0.000000
     7  H    1.759520   0.000000
     8  H    1.759521   1.759520   0.000000
 Stoichiometry    C2H6
 Framework group  CI[X(C2H6)]
 Deg. of freedom     9
 Full point group                 CI      NOp   2
 Largest Abelian subgroup         CI      NOp   2
 Largest concise Abelian subgroup CI      NOp   2
                         Standard orientation:                         
 ---------------------------------------------------------------------
 Center     Atomic      Atomic             Coordinates (Angstroms)
 Number     Number       Type             X           Y           Z
 ---------------------------------------------------------------------
      1          6           0       -0.408269    0.645423    0.000000
      2          6           0        0.408269   -0.645423    0.000000
      3          1           0       -1.340558    0.517333    0.546454
      4          1           0       -0.654914    0.951046   -1.014859
      5          1           0        0.144973    1.457025    0.468406
      6          1           0       -0.144973   -1.457025   -0.468406
      7          1           0        0.654914   -0.951046    1.014859
      8          1           0        1.340558   -0.517333   -0.546454
 ---------------------------------------------------------------------
 Rotational constants (GHZ):     80.9866466     20.0794495     20.0794486
 Standard basis: 6-31G(d,p) (6D, 7F)
 There are    30 symmetry adapted cartesian basis functions of AG  symmetry.
 There are    30 symmetry adapted cartesian basis functions of AU  symmetry.
 There are    30 symmetry adapted basis functions of AG  symmetry.
 There are    30 symmetry adapted basis functions of AU  symmetry.
    60 basis functions,    98 primitive gaussians,    60 cartesian basis functions
     9 alpha electrons        9 beta electrons
       nuclear repulsion energy        42.3375239687 Hartrees.
 NAtoms=    8 NActive=    8 NUniq=    4 SFac= 4.00D+00 NAtFMM=   60 NAOKFM=F Big=F
 Integral buffers will be    131072 words long.
 Raffenetti 1 integral format.
 Two-electron integral symmetry is turned on.
 One-electron integrals computed using PRISM.
 NBasis=    60 RedAO= T EigKep=  5.66D-03  NBF=    30    30
 NBsUse=    60 1.00D-06 EigRej= -1.00D+00 NBFU=    30    30
 Initial guess from the checkpoint file:  "/scr/Gau-11960.chk"
 B after Tr=     0.000000    0.000000    0.000000
         Rot=    1.000000    0.000000    0.000000    0.000001 Ang=   0.00 deg.
 Initial guess orbital symmetries:
       Occupied  (AG) (AU) (AG) (AU) (AU) (AU) (AG) (AG) (AG)
       Virtual   (AG) (AG) (AG) (AG) (AG) (AG) (AG) (AG) (AG) (AG)
                 (AG) (AG) (AG) (AG) (AG) (AG) (AG) (AG) (AG) (AG)
                 (AG) (AG) (AG) (AG) (AG) (AU) (AU) (AU) (AU) (AU)
                 (AU) (AU) (AU) (AU) (AU) (AU) (AU) (AU) (AU) (AU)
                 (AU) (AU) (AU) (AU) (AU) (AU) (AU) (AU) (AU) (AU)
                 (AU)
 Keep R1 ints in memory in symmetry-blocked form, NReq=2557331.
 Requested convergence on RMS density matrix=1.00D-08 within 128 cycles.
 Requested convergence on MAX density matrix=1.00D-06.
 Requested convergence on             energy=1.00D-06.
 No special actions if energy rises.
 SCF Done:  E(RHF) =  -79.2381963732     A.U. after    8 cycles
            NFock=  8  Conv=0.11D-08     -V/T= 2.0008
 ExpMin= 1.61D-01 ExpMax= 3.05D+03 ExpMxC= 4.57D+02 IAcc=3 IRadAn=         5 AccDes= 0.00D+00
 HarFok:  IExCor=  205 AccDes= 0.00D+00 IRadAn=         5 IDoV=-2 UseB2=F ITyADJ=14
 ICtDFT= 12500011 ScaDFX=  1.000000  1.000000  1.000000  1.000000
 Range of M.O.s used for correlation:     3    60
 NBasis=    60 NAE=     9 NBE=     9 NFC=     2 NFV=     0
 NROrb=     58 NOA=     7 NOB=     7 NVA=    51 NVB=    51
 Fully direct method using O(ONN) memory.
 JobTyp=1 Pass  1:  I=   3 to   9 NPSUse=  2 ParTrn=F ParDer=T DoDerP=T.
 Spin components of T(2) and E(2):
     alpha-alpha T2 =       0.1017554594D-01 E2=     -0.3075388238D-01
     alpha-beta  T2 =       0.7598261572D-01 E2=     -0.2436820225D+00
     beta-beta   T2 =       0.1017554594D-01 E2=     -0.3075388238D-01
 ANorm=    0.1047059553D+01
 E2 =    -0.3051897872D+00 EUMP2 =    -0.79543386160472D+02
          IDoAtm=11111111
          Differentiating once with respect to electric field.
                with respect to dipole field.
          Differentiating once with respect to nuclear coordinates.
 Keep R1 ints in memory in symmetry-blocked form, NReq=2539264.
          There are     1 degrees of freedom in the 1st order CPHF.  IDoFFX=0 NUNeed=     1.
 LinEq1:  Iter=  0 NonCon=     1 RMS=3.25D-03 Max=2.30D-02 NDo=     1
 AX will form     1 AO Fock derivatives at one time.
 LinEq1:  Iter=  1 NonCon=     1 RMS=1.10D-03 Max=1.37D-02 NDo=     1
 LinEq1:  Iter=  2 NonCon=     1 RMS=1.73D-04 Max=1.66D-03 NDo=     1
 LinEq1:  Iter=  3 NonCon=     1 RMS=2.30D-05 Max=1.95D-04 NDo=     1
 LinEq1:  Iter=  4 NonCon=     1 RMS=2.30D-06 Max=1.58D-05 NDo=     1
 LinEq1:  Iter=  5 NonCon=     1 RMS=1.97D-07 Max=1.50D-06 NDo=     1
 LinEq1:  Iter=  6 NonCon=     1 RMS=1.37D-08 Max=8.42D-08 NDo=     1
 LinEq1:  Iter=  7 NonCon=     1 RMS=1.04D-09 Max=1.42D-08 NDo=     1
 LinEq1:  Iter=  8 NonCon=     0 RMS=9.76D-11 Max=8.70D-10 NDo=     1
 Linear equations converged to 1.000D-10 1.000D-09 after     8 iterations.
 End of Minotr F.D. properties file   721 does not exist.
 End of Minotr F.D. properties file   722 does not exist.
 End of Minotr F.D. properties file   788 does not exist.
 Calling FoFJK, ICntrl=  10002127 FMM=F ISym2X=1 I1Cent= 0 IOpClX= 0 NMat=1 NMatS=1 NMatT=0.
 ***** Axes restored to original set *****
 -------------------------------------------------------------------
 Center     Atomic                   Forces (Hartrees/Bohr)
 Number     Number              X              Y              Z
 -------------------------------------------------------------------
      1        6           0.001638114   -0.002590030   -0.000000008
      2        6          -0.001638114    0.002590030    0.000000008
      3        1          -0.000420959    0.000267880    0.000135633
      4        1          -0.000250802    0.000375524   -0.000251996
      5        1          -0.000052138    0.000500954    0.000116282
      6        1           0.000052138   -0.000500954   -0.000116282
      7        1           0.000250802   -0.000375524    0.000251996
      8        1           0.000420959   -0.000267880   -0.000135633
 -------------------------------------------------------------------
 Cartesian Forces:  Max     0.002590030 RMS     0.000921668

 GradGradGradGradGradGradGradGradGradGradGradGradGradGradGradGradGradGrad
 Berny optimization.
 Using GEDIIS/GDIIS optimizer.
 FormGI is forming the generalized inverse of G from B-inverse, IUseBI=4.
 Internal  Forces:  Max     0.001710484 RMS     0.000430433
 Search for a local minimum.
 Step number   2 out of a maximum of   38
 All quantities printed in internal units (Hartrees-Bohrs-Radians)
 Mixed Optimization -- En-DIIS/RFO-DIIS
 Update second derivatives using D2CorX and points    1    2
 DE= -2.47D-04 DEPred=-2.19D-04 R= 1.12D+00
 TightC=F SS=  1.41D+00  RLast= 4.55D-02 DXNew= 5.0454D-01 1.3638D-01
 Trust test= 1.12D+00 RLast= 4.55D-02 DXMaxT set to 3.00D-01
 ITU=  1  0
 Use linear search instead of GDIIS.
     Eigenvalues ---    0.00280   0.05464   0.05464   0.05464   0.05464
     Eigenvalues ---    0.13372   0.16000   0.16000   0.16000   0.16000
     Eigenvalues ---    0.16000   0.26371   0.34549   0.34549   0.34549
     Eigenvalues ---    0.34549   0.34549   0.39617
 RFO step:  Lambda=-1.85922193D-05 EMin= 2.80064107D-03
 Quartic linear search produced a step of  0.14124.
 Iteration  1 RMS(Cart)=  0.00140571 RMS(Int)=  0.00000808
 Iteration  2 RMS(Cart)=  0.00000403 RMS(Int)=  0.00000735
 Iteration  3 RMS(Cart)=  0.00000000 RMS(Int)=  0.00000735
 ClnCor:  largest displacement from symmetrization is 5.14D-10 for atom     8.
 Variable       Old X    -DE/DX   Delta X   Delta X   Delta X     New X
                                 (Linear)    (Quad)   (Total)
    R1        2.88641  -0.00171  -0.00248  -0.00502  -0.00751   2.87890
    R2        2.05640   0.00040  -0.00109   0.00208   0.00099   2.05739
    R3        2.05640   0.00040  -0.00109   0.00208   0.00099   2.05739
    R4        2.05640   0.00040  -0.00109   0.00208   0.00099   2.05739
    R5        2.05640   0.00040  -0.00109   0.00208   0.00099   2.05739
    R6        2.05640   0.00040  -0.00109   0.00208   0.00099   2.05739
    R7        2.05640   0.00040  -0.00109   0.00208   0.00099   2.05739
    A1        1.93748   0.00032   0.00149   0.00124   0.00272   1.94020
    A2        1.93748   0.00032   0.00149   0.00124   0.00272   1.94020
    A3        1.93748   0.00032   0.00149   0.00124   0.00272   1.94020
    A4        1.88304  -0.00034  -0.00156  -0.00131  -0.00288   1.88016
    A5        1.88304  -0.00034  -0.00156  -0.00131  -0.00288   1.88016
    A6        1.88304  -0.00034  -0.00156  -0.00131  -0.00288   1.88016
    A7        1.93748   0.00032   0.00149   0.00124   0.00272   1.94020
    A8        1.93748   0.00032   0.00149   0.00124   0.00272   1.94020
    A9        1.93748   0.00032   0.00149   0.00124   0.00272   1.94020
   A10        1.88304  -0.00034  -0.00156  -0.00131  -0.00288   1.88016
   A11        1.88304  -0.00034  -0.00156  -0.00131  -0.00288   1.88016
   A12        1.88304  -0.00034  -0.00156  -0.00131  -0.00288   1.88016
    D1        1.04720   0.00000   0.00000   0.00000   0.00000   1.04720
    D2       -1.04720   0.00000   0.00000   0.00000   0.00000  -1.04720
    D3        3.14159   0.00000   0.00000   0.00000   0.00000   3.14159
    D4       -1.04720   0.00000   0.00000   0.00000   0.00000  -1.04720
    D5        3.14159   0.00000   0.00000   0.00000   0.00000   3.14159
    D6        1.04720   0.00000   0.00000   0.00000   0.00000   1.04720
    D7        3.14159   0.00000   0.00000   0.00000   0.00000   3.14159
    D8        1.04720   0.00000   0.00000   0.00000   0.00000   1.04720
    D9       -1.04720   0.00000   0.00000   0.00000   0.00000  -1.04720
         Item               Value     Threshold  Converged?
 Maximum Force            0.001710     0.000450     NO 
 RMS     Force            0.000430     0.000300     NO 
 Maximum Displacement     0.003172     0.001800     NO 
 RMS     Displacement     0.001406     0.001200     NO 
 Predicted change in Energy=-1.321071D-05
 GradGradGradGradGradGradGradGradGradGradGradGradGradGradGradGradGradGrad

                          Input orientation:                          
 ---------------------------------------------------------------------
 Center     Atomic      Atomic             Coordinates (Angstroms)
 Number     Number       Type             X           Y           Z
 ---------------------------------------------------------------------
      1          6           0       -1.766298    1.599469    0.000000
      2          6           0       -0.951882    0.311981    0.000000
      3          1           0       -2.699753    1.474136    0.546143
      4          1           0       -2.014500    1.907601   -1.014283
      5          1           0       -1.215066    2.413292    0.468140
      6          1           0       -1.503114   -0.501842   -0.468140
      7          1           0       -0.703680    0.003849    1.014283
      8          1           0       -0.018427    0.437314   -0.546143
 ---------------------------------------------------------------------
                    Distance matrix (angstroms):
                    1          2          3          4          5
     1  C    0.000000
     2  C    1.523449   0.000000
     3  H    1.088724   2.168855   0.000000
     4  H    1.088724   2.168855   1.758521   0.000000
     5  H    1.088724   2.168854   1.758521   1.758520   0.000000
     6  H    2.168854   1.088724   2.522936   2.522936   3.075321
     7  H    2.168855   1.088724   2.522936   3.075321   2.522936
     8  H    2.168855   1.088724   3.075321   2.522936   2.522936
                    6          7          8
     6  H    0.000000
     7  H    1.758520   0.000000
     8  H    1.758521   1.758521   0.000000
 Stoichiometry    C2H6
 Framework group  CI[X(C2H6)]
 Deg. of freedom     9
 Full point group                 CI      NOp   2
 Largest Abelian subgroup         CI      NOp   2
 Largest concise Abelian subgroup CI      NOp   2
                         Standard orientation:                         
 ---------------------------------------------------------------------
 Center     Atomic      Atomic             Coordinates (Angstroms)
 Number     Number       Type             X           Y           Z
 ---------------------------------------------------------------------
      1          6           0       -0.407208    0.643744    0.000000
      2          6           0        0.407208   -0.643744    0.000000
      3          1           0       -1.340663    0.518411    0.546143
      4          1           0       -0.655410    0.951876   -1.014283
      5          1           0        0.144024    1.457567    0.468140
      6          1           0       -0.144024   -1.457567   -0.468140
      7          1           0        0.655410   -0.951876    1.014283
      8          1           0        1.340663   -0.518411   -0.546143
 ---------------------------------------------------------------------
 Rotational constants (GHZ):     81.0787681     20.1296446     20.1296434
 Standard basis: 6-31G(d,p) (6D, 7F)
 There are    30 symmetry adapted cartesian basis functions of AG  symmetry.
 There are    30 symmetry adapted cartesian basis functions of AU  symmetry.
 There are    30 symmetry adapted basis functions of AG  symmetry.
 There are    30 symmetry adapted basis functions of AU  symmetry.
    60 basis functions,    98 primitive gaussians,    60 cartesian basis functions
     9 alpha electrons        9 beta electrons
       nuclear repulsion energy        42.3665052374 Hartrees.
 NAtoms=    8 NActive=    8 NUniq=    4 SFac= 4.00D+00 NAtFMM=   60 NAOKFM=F Big=F
 Integral buffers will be    131072 words long.
 Raffenetti 1 integral format.
 Two-electron integral symmetry is turned on.
 One-electron integrals computed using PRISM.
 NBasis=    60 RedAO= T EigKep=  5.64D-03  NBF=    30    30
 NBsUse=    60 1.00D-06 EigRej= -1.00D+00 NBFU=    30    30
 Initial guess from the checkpoint file:  "/scr/Gau-11960.chk"
 B after Tr=     0.000000    0.000000    0.000000
         Rot=    1.000000    0.000000    0.000000    0.000000 Ang=   0.00 deg.
 Initial guess orbital symmetries:
       Occupied  (AG) (AU) (AG) (AU) (AU) (AU) (AG) (AG) (AG)
       Virtual   (AG) (AG) (AG) (AG) (AG) (AG) (AG) (AG) (AG) (AG)
                 (AG) (AG) (AG) (AG) (AG) (AG) (AG) (AG) (AG) (AG)
                 (AG) (AG) (AG) (AG) (AG) (AU) (AU) (AU) (AU) (AU)
                 (AU) (AU) (AU) (AU) (AU) (AU) (AU) (AU) (AU) (AU)
                 (AU) (AU) (AU) (AU) (AU) (AU) (AU) (AU) (AU) (AU)
                 (AU)
 Keep R1 ints in memory in symmetry-blocked form, NReq=2557331.
 Requested convergence on RMS density matrix=1.00D-08 within 128 cycles.
 Requested convergence on MAX density matrix=1.00D-06.
 Requested convergence on             energy=1.00D-06.
 No special actions if energy rises.
 SCF Done:  E(RHF) =  -79.2381922821     A.U. after    7 cycles
            NFock=  7  Conv=0.21D-08     -V/T= 2.0007
 ExpMin= 1.61D-01 ExpMax= 3.05D+03 ExpMxC= 4.57D+02 IAcc=3 IRadAn=         5 AccDes= 0.00D+00
 HarFok:  IExCor=  205 AccDes= 0.00D+00 IRadAn=         5 IDoV=-2 UseB2=F ITyADJ=14
 ICtDFT= 12500011 ScaDFX=  1.000000  1.000000  1.000000  1.000000
 Range of M.O.s used for correlation:     3    60
 NBasis=    60 NAE=     9 NBE=     9 NFC=     2 NFV=     0
 NROrb=     58 NOA=     7 NOB=     7 NVA=    51 NVB=    51
 Fully direct method using O(ONN) memory.
 JobTyp=1 Pass  1:  I=   3 to   9 NPSUse=  2 ParTrn=F ParDer=T DoDerP=T.
 Spin components of T(2) and E(2):
     alpha-alpha T2 =       0.1017553038D-01 E2=     -0.3076372086D-01
     alpha-beta  T2 =       0.7596809921D-01 E2=     -0.2436805769D+00
     beta-beta   T2 =       0.1017553038D-01 E2=     -0.3076372086D-01
 ANorm=    0.1047052606D+01
 E2 =    -0.3052080186D+00 EUMP2 =    -0.79543400300715D+02
          IDoAtm=11111111
          Differentiating once with respect to electric field.
                with respect to dipole field.
          Differentiating once with respect to nuclear coordinates.
 Keep R1 ints in memory in symmetry-blocked form, NReq=2539264.
          There are     1 degrees of freedom in the 1st order CPHF.  IDoFFX=0 NUNeed=     1.
 LinEq1:  Iter=  0 NonCon=     1 RMS=3.26D-03 Max=2.29D-02 NDo=     1
 AX will form     1 AO Fock derivatives at one time.
 LinEq1:  Iter=  1 NonCon=     1 RMS=1.11D-03 Max=1.39D-02 NDo=     1
 LinEq1:  Iter=  2 NonCon=     1 RMS=1.74D-04 Max=1.68D-03 NDo=     1
 LinEq1:  Iter=  3 NonCon=     1 RMS=2.29D-05 Max=1.91D-04 NDo=     1
 LinEq1:  Iter=  4 NonCon=     1 RMS=2.30D-06 Max=1.57D-05 NDo=     1
 LinEq1:  Iter=  5 NonCon=     1 RMS=2.00D-07 Max=1.54D-06 NDo=     1
 LinEq1:  Iter=  6 NonCon=     1 RMS=1.41D-08 Max=1.06D-07 NDo=     1
 LinEq1:  Iter=  7 NonCon=     1 RMS=1.16D-09 Max=1.65D-08 NDo=     1
 LinEq1:  Iter=  8 NonCon=     1 RMS=1.03D-10 Max=7.91D-10 NDo=     1
 LinEq1:  Iter=  9 NonCon=     0 RMS=8.63D-12 Max=6.50D-11 NDo=     1
 Linear equations converged to 1.000D-10 1.000D-09 after     9 iterations.
 End of Minotr F.D. properties file   721 does not exist.
 End of Minotr F.D. properties file   722 does not exist.
 End of Minotr F.D. properties file   788 does not exist.
 Calling FoFJK, ICntrl=  10002127 FMM=F ISym2X=1 I1Cent= 0 IOpClX= 0 NMat=1 NMatS=1 NMatT=0.
 ***** Axes restored to original set *****
 -------------------------------------------------------------------
 Center     Atomic                   Forces (Hartrees/Bohr)
 Number     Number              X              Y              Z
 -------------------------------------------------------------------
      1        6           0.000111548   -0.000176460    0.000000062
      2        6          -0.000111548    0.000176460   -0.000000062
      3        1          -0.000115198    0.000031652    0.000051318
      4        1          -0.000050828    0.000072390   -0.000095417
      5        1           0.000024396    0.000120041    0.000044074
      6        1          -0.000024396   -0.000120041   -0.000044074
      7        1           0.000050828   -0.000072390    0.000095417
      8        1           0.000115198   -0.000031652   -0.000051318
 -------------------------------------------------------------------
 Cartesian Forces:  Max     0.000176460 RMS     0.000088677

 GradGradGradGradGradGradGradGradGradGradGradGradGradGradGradGradGradGrad
 Berny optimization.
 Using GEDIIS/GDIIS optimizer.
 FormGI is forming the generalized inverse of G from B-inverse, IUseBI=4.
 Internal  Forces:  Max     0.000121034 RMS     0.000065030
 Search for a local minimum.
 Step number   3 out of a maximum of   38
 All quantities printed in internal units (Hartrees-Bohrs-Radians)
 Mixed Optimization -- En-DIIS/RFO-DIIS
 Swapping is turned off.
 Update second derivatives using D2CorX and points    1    2    3
 DE= -1.41D-05 DEPred=-1.32D-05 R= 1.07D+00
 TightC=F SS=  1.41D+00  RLast= 1.25D-02 DXNew= 5.0454D-01 3.7518D-02
 Trust test= 1.07D+00 RLast= 1.25D-02 DXMaxT set to 3.00D-01
 ITU=  1  1  0
     Eigenvalues ---    0.00280   0.05435   0.05435   0.05435   0.05435
     Eigenvalues ---    0.12139   0.16000   0.16000   0.16000   0.16000
     Eigenvalues ---    0.16000   0.28094   0.34549   0.34549   0.34549
     Eigenvalues ---    0.34549   0.34549   0.38858
 En-DIIS/RFO-DIIS IScMMF=        0 using points:     3    2
 RFO step:  Lambda=-2.30694289D-07.
 DidBck=F Rises=F RFO-DIIS coefs:    1.07793   -0.07793
 Iteration  1 RMS(Cart)=  0.00041663 RMS(Int)=  0.00000024
 Iteration  2 RMS(Cart)=  0.00000007 RMS(Int)=  0.00000023
 ClnCor:  largest displacement from symmetrization is 8.62D-09 for atom     6.
 Variable       Old X    -DE/DX   Delta X   Delta X   Delta X     New X
                                 (Linear)    (Quad)   (Total)
    R1        2.87890   0.00006  -0.00058   0.00062   0.00003   2.87893
    R2        2.05739   0.00012   0.00008   0.00027   0.00034   2.05773
    R3        2.05739   0.00012   0.00008   0.00027   0.00034   2.05773
    R4        2.05739   0.00012   0.00008   0.00027   0.00034   2.05773
    R5        2.05739   0.00012   0.00008   0.00027   0.00034   2.05773
    R6        2.05739   0.00012   0.00008   0.00027   0.00034   2.05773
    R7        2.05739   0.00012   0.00008   0.00027   0.00034   2.05773
    A1        1.94020   0.00005   0.00021   0.00018   0.00040   1.94059
    A2        1.94020   0.00005   0.00021   0.00018   0.00040   1.94059
    A3        1.94020   0.00005   0.00021   0.00018   0.00040   1.94059
    A4        1.88016  -0.00005  -0.00022  -0.00020  -0.00042   1.87974
    A5        1.88016  -0.00005  -0.00022  -0.00020  -0.00042   1.87974
    A6        1.88016  -0.00005  -0.00022  -0.00020  -0.00042   1.87974
    A7        1.94020   0.00005   0.00021   0.00018   0.00040   1.94059
    A8        1.94020   0.00005   0.00021   0.00018   0.00040   1.94059
    A9        1.94020   0.00005   0.00021   0.00018   0.00040   1.94059
   A10        1.88016  -0.00005  -0.00022  -0.00020  -0.00042   1.87974
   A11        1.88016  -0.00005  -0.00022  -0.00020  -0.00042   1.87974
   A12        1.88016  -0.00005  -0.00022  -0.00020  -0.00042   1.87974
    D1        1.04720   0.00000   0.00000   0.00000   0.00000   1.04720
    D2       -1.04720   0.00000   0.00000   0.00000   0.00000  -1.04720
    D3        3.14159   0.00000   0.00000   0.00000   0.00000   3.14159
    D4       -1.04720   0.00000   0.00000   0.00000   0.00000  -1.04720
    D5        3.14159   0.00000   0.00000   0.00000   0.00000   3.14159
    D6        1.04720   0.00000   0.00000   0.00000   0.00000   1.04720
    D7        3.14159   0.00000   0.00000   0.00000   0.00000   3.14159
    D8        1.04720   0.00000   0.00000   0.00000   0.00000   1.04720
    D9       -1.04720   0.00000   0.00000   0.00000   0.00000  -1.04720
         Item               Value     Threshold  Converged?
 Maximum Force            0.000121     0.000450     YES
 RMS     Force            0.000065     0.000300     YES
 Maximum Displacement     0.000773     0.001800     YES
 RMS     Displacement     0.000417     0.001200     YES
 Predicted change in Energy=-2.427016D-07
 Optimization completed.
    -- Stationary point found.
                           ----------------------------
                           !   Optimized Parameters   !
                           ! (Angstroms and Degrees)  !
 --------------------------                            --------------------------
 ! Name  Definition              Value          Derivative Info.                !
 --------------------------------------------------------------------------------
 ! R1    R(1,2)                  1.5234         -DE/DX =    0.0001              !
 ! R2    R(1,3)                  1.0887         -DE/DX =    0.0001              !
 ! R3    R(1,4)                  1.0887         -DE/DX =    0.0001              !
 ! R4    R(1,5)                  1.0887         -DE/DX =    0.0001              !
 ! R5    R(2,6)                  1.0887         -DE/DX =    0.0001              !
 ! R6    R(2,7)                  1.0887         -DE/DX =    0.0001              !
 ! R7    R(2,8)                  1.0887         -DE/DX =    0.0001              !
 ! A1    A(2,1,3)              111.1652         -DE/DX =    0.0                 !
 ! A2    A(2,1,4)              111.1652         -DE/DX =    0.0                 !
 ! A3    A(2,1,5)              111.1652         -DE/DX =    0.0                 !
 ! A4    A(3,1,4)              107.7254         -DE/DX =    0.0                 !
 ! A5    A(3,1,5)              107.7254         -DE/DX =    0.0                 !
 ! A6    A(4,1,5)              107.7254         -DE/DX =    0.0                 !
 ! A7    A(1,2,6)              111.1652         -DE/DX =    0.0                 !
 ! A8    A(1,2,7)              111.1652         -DE/DX =    0.0                 !
 ! A9    A(1,2,8)              111.1652         -DE/DX =    0.0                 !
 ! A10   A(6,2,7)              107.7254         -DE/DX =    0.0                 !
 ! A11   A(6,2,8)              107.7254         -DE/DX =    0.0                 !
 ! A12   A(7,2,8)              107.7254         -DE/DX =    0.0                 !
 ! D1    D(3,1,2,6)             60.0            -DE/DX =    0.0                 !
 ! D2    D(3,1,2,7)            -60.0            -DE/DX =    0.0                 !
 ! D3    D(3,1,2,8)            180.0            -DE/DX =    0.0                 !
 ! D4    D(4,1,2,6)            -60.0            -DE/DX =    0.0                 !
 ! D5    D(4,1,2,7)            180.0            -DE/DX =    0.0                 !
 ! D6    D(4,1,2,8)             60.0            -DE/DX =    0.0                 !
 ! D7    D(5,1,2,6)            180.0            -DE/DX =    0.0                 !
 ! D8    D(5,1,2,7)             60.0            -DE/DX =    0.0                 !
 ! D9    D(5,1,2,8)            -60.0            -DE/DX =    0.0                 !
 --------------------------------------------------------------------------------
 GradGradGradGradGradGradGradGradGradGradGradGradGradGradGradGradGradGrad

                          Input orientation:                          
 ---------------------------------------------------------------------
 Center     Atomic      Atomic             Coordinates (Angstroms)
 Number     Number       Type             X           Y           Z
 ---------------------------------------------------------------------
      1          6           0       -1.766298    1.599469    0.000000
      2          6           0       -0.951882    0.311981    0.000000
      3          1           0       -2.699753    1.474136    0.546143
      4          1           0       -2.014500    1.907601   -1.014283
      5          1           0       -1.215066    2.413292    0.468140
      6          1           0       -1.503114   -0.501842   -0.468140
      7          1           0       -0.703680    0.003849    1.014283
      8          1           0       -0.018427    0.437314   -0.546143
 ---------------------------------------------------------------------
                    Distance matrix (angstroms):
                    1          2          3          4          5
     1  C    0.000000
     2  C    1.523449   0.000000
     3  H    1.088724   2.168855   0.000000
     4  H    1.088724   2.168855   1.758521   0.000000
     5  H    1.088724   2.168854   1.758521   1.758520   0.000000
     6  H    2.168854   1.088724   2.522936   2.522936   3.075321
     7  H    2.168855   1.088724   2.522936   3.075321   2.522936
     8  H    2.168855   1.088724   3.075321   2.522936   2.522936
                    6          7          8
     6  H    0.000000
     7  H    1.758520   0.000000
     8  H    1.758521   1.758521   0.000000
 Stoichiometry    C2H6
 Framework group  CI[X(C2H6)]
 Deg. of freedom     9
 Full point group                 CI      NOp   2
 Largest Abelian subgroup         CI      NOp   2
 Largest concise Abelian subgroup CI      NOp   2
                         Standard orientation:                         
 ---------------------------------------------------------------------
 Center     Atomic      Atomic             Coordinates (Angstroms)
 Number     Number       Type             X           Y           Z
 ---------------------------------------------------------------------
      1          6           0       -0.407208    0.643744    0.000000
      2          6           0        0.407208   -0.643744    0.000000
      3          1           0       -1.340663    0.518411    0.546143
      4          1           0       -0.655410    0.951876   -1.014283
      5          1           0        0.144024    1.457567    0.468140
      6          1           0       -0.144024   -1.457567   -0.468140
      7          1           0        0.655410   -0.951876    1.014283
      8          1           0        1.340663   -0.518411   -0.546143
 ---------------------------------------------------------------------
 Rotational constants (GHZ):     81.0787681     20.1296446     20.1296434

 **********************************************************************

            Population analysis using the SCF density.

 **********************************************************************

 Orbital symmetries:
       Occupied  (AG) (AU) (AG) (AU) (AU) (AU) (AG) (AG) (AG)
       Virtual   (AG) (AU) (AU) (AU) (AG) (AG) (AU) (AG) (AU) (AU)
                 (AG) (AG) (AU) (AU) (AU) (AG) (AG) (AG) (AU) (AG)
                 (AU) (AU) (AU) (AG) (AG) (AG) (AU) (AG) (AU) (AU)
                 (AG) (AG) (AU) (AU) (AU) (AG) (AG) (AG) (AU) (AU)
                 (AU) (AG) (AG) (AG) (AU) (AG) (AG) (AU) (AU) (AG)
                 (AU)
 The electronic state is 1-AG.
 Alpha  occ. eigenvalues --  -11.21167 -11.21108  -1.01880  -0.84164  -0.59646
 Alpha  occ. eigenvalues --   -0.59646  -0.50896  -0.48543  -0.48543
 Alpha virt. eigenvalues --    0.24230   0.30244   0.31686   0.31686   0.33775
 Alpha virt. eigenvalues --    0.33775   0.41415   0.70274   0.73795   0.73795
 Alpha virt. eigenvalues --    0.83114   0.83114   0.93919   1.12802   1.12802
 Alpha virt. eigenvalues --    1.16630   1.16630   1.16878   1.22393   1.27739
 Alpha virt. eigenvalues --    1.59026   1.59026   1.68853   1.96827   1.96827
 Alpha virt. eigenvalues --    2.17921   2.36251   2.36321   2.39278   2.39278
 Alpha virt. eigenvalues --    2.40844   2.40844   2.58319   2.58319   2.65943
 Alpha virt. eigenvalues --    2.81116   2.81116   3.01887   3.11505   3.14693
 Alpha virt. eigenvalues --    3.14693   3.26262   3.26262   3.53060   3.62328
 Alpha virt. eigenvalues --    3.77742   3.77742   3.91407   3.91407   4.74664
 Alpha virt. eigenvalues --    5.00508
          Condensed to atoms (all electrons):
               1          2          3          4          5          6
     1  C    4.906637   0.330243   0.404534   0.404534   0.404534  -0.038987
     2  C    0.330243   4.906637  -0.038987  -0.038987  -0.038987   0.404534
     3  H    0.404534  -0.038987   0.588290  -0.031311  -0.031311  -0.003339
     4  H    0.404534  -0.038987  -0.031311   0.588290  -0.031311  -0.003339
     5  H    0.404534  -0.038987  -0.031311  -0.031311   0.588290   0.004290
     6  H   -0.038987   0.404534  -0.003339  -0.003339   0.004290   0.588290
     7  H   -0.038987   0.404534  -0.003339   0.004290  -0.003339  -0.031311
     8  H   -0.038987   0.404534   0.004290  -0.003339  -0.003339  -0.031311
               7          8
     1  C   -0.038987  -0.038987
     2  C    0.404534   0.404534
     3  H   -0.003339   0.004290
     4  H    0.004290  -0.003339
     5  H   -0.003339  -0.003339
     6  H   -0.031311  -0.031311
     7  H    0.588290  -0.031311
     8  H   -0.031311   0.588290
 Mulliken charges:
               1
     1  C   -0.333518
     2  C   -0.333518
     3  H    0.111173
     4  H    0.111173
     5  H    0.111173
     6  H    0.111173
     7  H    0.111173
     8  H    0.111173
 Sum of Mulliken charges =   0.00000
 Mulliken charges with hydrogens summed into heavy atoms:
               1
     1  C    0.000000
     2  C    0.000000
 Electronic spatial extent (au):  <R**2>=            109.2448
 Charge=              0.0000 electrons
 Dipole moment (field-independent basis, Debye):
    X=              0.0000    Y=              0.0000    Z=              0.0000  Tot=              0.0000
 Quadrupole moment (field-independent basis, Debye-Ang):
   XX=            -15.0891   YY=            -15.3509   ZZ=            -14.9145
   XY=              0.2760   XZ=              0.0000   YZ=              0.0000
 Traceless Quadrupole moment (field-independent basis, Debye-Ang):
   XX=              0.0291   YY=             -0.2327   ZZ=              0.2037
   XY=              0.2760   XZ=              0.0000   YZ=              0.0000
 Octapole moment (field-independent basis, Debye-Ang**2):
  XXX=              0.0000  YYY=              0.0000  ZZZ=              0.0000  XYY=              0.0000
  XXY=              0.0000  XXZ=              0.0000  XZZ=              0.0000  YZZ=              0.0000
  YYZ=              0.0000  XYZ=              0.0000
 Hexadecapole moment (field-independent basis, Debye-Ang**3):
 XXXX=            -46.2864 YYYY=            -73.4086 ZZZZ=            -28.9940 XXXY=             13.8650
 XXXZ=             -1.4458 YYYX=             15.1301 YYYZ=              0.9146 ZZZX=              0.6748
 ZZZY=             -1.0668 XXYY=            -20.4930 XXZZ=            -12.2762 YYZZ=            -16.7257
 XXYZ=              0.1522 YYXZ=              0.7711 ZZXY=              4.2975
 N-N= 4.236650523736D+01 E-N=-2.684780345829D+02  KE= 7.918053116692D+01
 Symmetry AG   KE= 4.109250963852D+01
 Symmetry AU   KE= 3.808802152841D+01
 1\1\GINC-N0299\FOpt\RMP2-FC\6-31G(d,p)\C2H6\TAIYUPAN\23-Feb-2017\0\\#n
  MP2/6-31G(d,p) Opt\\CH3_MP2/6-31G(d)\\0,1\C,-1.7662980385,1.599468876
 9,0.0000000834\C,-0.9518819615,0.3119811231,-0.0000000834\H,-2.6997534
 302,1.474135566,0.5461433743\H,-2.0144997271,1.9076014839,-1.014282815
 3\H,-1.2150664626,2.4132920402,0.468140031\H,-1.5031135374,-0.50184204
 02,-0.468140031\H,-0.7036802729,0.0038485161,1.0142828153\H,-0.0184265
 698,0.437314434,-0.5461433743\\Version=ES64L-G09RevE.01\State=1-AG\HF=
 -79.2381923\MP2=-79.5434003\RMSD=2.098e-09\RMSF=8.868e-05\Dipole=0.,0.
 ,0.\PG=CI [X(C2H6)]\\@


 A BIRD IN THE HAND IS SAFER THAN ONE OVERHEAD.

                       -- NEWTON'S SEVENTH LAW
 Job cpu time:       0 days  0 hours  0 minutes 40.0 seconds.
 File lengths (MBytes):  RWF=      5 Int=      0 D2E=      0 Chk=      2 Scr=      1
 Normal termination of Gaussian 09 at Thu Feb 23 18:25:42 2017.
