 Entering Gaussian System, Link 0=g09
 Input=CH_C_6Gdp.com
 Output=CH_C_6Gdp.log
 Initial command:
 /sw/contrib/gaussian/g09/E01/g09/l1.exe "/scr/Gau-22859.inp" -scrdir="/scr/"
 Entering Link 1 = /sw/contrib/gaussian/g09/E01/g09/l1.exe PID=     22860.
  
 Copyright (c) 1988,1990,1992,1993,1995,1998,2003,2009,2015,
            Gaussian, Inc.  All Rights Reserved.
  
 This is part of the Gaussian(R) 09 program.  It is based on
 the Gaussian(R) 03 system (copyright 2003, Gaussian, Inc.),
 the Gaussian(R) 98 system (copyright 1998, Gaussian, Inc.),
 the Gaussian(R) 94 system (copyright 1995, Gaussian, Inc.),
 the Gaussian 92(TM) system (copyright 1992, Gaussian, Inc.),
 the Gaussian 90(TM) system (copyright 1990, Gaussian, Inc.),
 the Gaussian 88(TM) system (copyright 1988, Gaussian, Inc.),
 the Gaussian 86(TM) system (copyright 1986, Carnegie Mellon
 University), and the Gaussian 82(TM) system (copyright 1983,
 Carnegie Mellon University). Gaussian is a federally registered
 trademark of Gaussian, Inc.
  
 This software contains proprietary and confidential information,
 including trade secrets, belonging to Gaussian, Inc.
  
 This software is provided under written license and may be
 used, copied, transmitted, or stored only in accord with that
 written license.
  
 The following legend is applicable only to US Government
 contracts under FAR:
  
                    RESTRICTED RIGHTS LEGEND
  
 Use, reproduction and disclosure by the US Government is
 subject to restrictions as set forth in subparagraphs (a)
 and (c) of the Commercial Computer Software - Restricted
 Rights clause in FAR 52.227-19.
  
 Gaussian, Inc.
 340 Quinnipiac St., Bldg. 40, Wallingford CT 06492
  
  
 ---------------------------------------------------------------
 Warning -- This program may not be used in any manner that
 competes with the business of Gaussian, Inc. or will provide
 assistance to any competitor of Gaussian, Inc.  The licensee
 of this program is prohibited from giving any competitor of
 Gaussian, Inc. access to this program.  By using this program,
 the user acknowledges that Gaussian, Inc. is engaged in the
 business of creating and licensing software in the field of
 computational chemistry and represents and warrants to the
 licensee that it is not a competitor of Gaussian, Inc. and that
 it will not use this program in any manner prohibited above.
 ---------------------------------------------------------------
  

 Cite this work as:
 Gaussian 09, Revision E.01,
 M. J. Frisch, G. W. Trucks, H. B. Schlegel, G. E. Scuseria, 
 M. A. Robb, J. R. Cheeseman, G. Scalmani, V. Barone, B. Mennucci, 
 G. A. Petersson, H. Nakatsuji, M. Caricato, X. Li, H. P. Hratchian, 
 A. F. Izmaylov, J. Bloino, G. Zheng, J. L. Sonnenberg, M. Hada, 
 M. Ehara, K. Toyota, R. Fukuda, J. Hasegawa, M. Ishida, T. Nakajima, 
 Y. Honda, O. Kitao, H. Nakai, T. Vreven, J. A. Montgomery, Jr., 
 J. E. Peralta, F. Ogliaro, M. Bearpark, J. J. Heyd, E. Brothers, 
 K. N. Kudin, V. N. Staroverov, T. Keith, R. Kobayashi, J. Normand, 
 K. Raghavachari, A. Rendell, J. C. Burant, S. S. Iyengar, J. Tomasi, 
 M. Cossi, N. Rega, J. M. Millam, M. Klene, J. E. Knox, J. B. Cross, 
 V. Bakken, C. Adamo, J. Jaramillo, R. Gomperts, R. E. Stratmann, 
 O. Yazyev, A. J. Austin, R. Cammi, C. Pomelli, J. W. Ochterski, 
 R. L. Martin, K. Morokuma, V. G. Zakrzewski, G. A. Voth, 
 P. Salvador, J. J. Dannenberg, S. Dapprich, A. D. Daniels, 
 O. Farkas, J. B. Foresman, J. V. Ortiz, J. Cioslowski, 
 and D. J. Fox, Gaussian, Inc., Wallingford CT, 2013.
 
 ******************************************
 Gaussian 09:  ES64L-G09RevE.01 30-Nov-2015
                23-Feb-2017 
 ******************************************
 %NProcShared=8
 Will use up to    8 processors via shared memory.
 ----------------------
 #n CCSD/6-31G(d,p) Opt
 ----------------------
 1/18=20,19=15,38=1/1,3;
 2/9=110,12=2,17=6,18=5,40=1/2;
 3/5=1,6=6,7=101,11=9,16=1,25=1,30=1,71=1/1,2,3;
 4//1;
 5/5=2,38=5/2;
 8/6=4,9=120000,10=2/1,4;
 9/5=7,15=1/13;
 11/28=-8,29=200,42=3/11;
 10/5=6/2;
 6/7=2,8=2,9=2,10=2/1;
 7/12=7/1,2,3,16;
 1/18=20,19=15/3(2);
 2/9=110/2;
 99//99;
 2/9=110/2;
 3/5=1,6=6,7=101,11=9,16=1,25=1,30=1,71=1/1,2,3;
 4/5=5,16=3,69=1/1;
 5/5=2,38=5/2;
 8/6=4,9=120000,10=2/1,4;
 9/5=7,15=1/13;
 11/28=-8,29=200,42=3/11;
 10/5=6/2;
 7/12=7/1,2,3,16;
 1/18=20,19=15/3(-9);
 2/9=110/2;
 6/7=2,8=2,9=2,10=2/1;
 99//99;
 ----------------
 CH_CCSD/6-31G(d)
 ----------------
 Symbolic Z-matrix:
 Charge =  0 Multiplicity = 1
 C                     0.81212   0.92205   2.25756 
 C                    -0.25466   0.80282   1.70927 
 H                     1.74883   1.02674   2.739 
 H                    -1.19137   0.69814   1.22782 
 

 GradGradGradGradGradGradGradGradGradGradGradGradGradGradGradGradGradGrad
 Berny optimization.
 Initialization pass.
                           ----------------------------
                           !    Initial Parameters    !
                           ! (Angstroms and Degrees)  !
 --------------------------                            --------------------------
 ! Name  Definition              Value          Derivative Info.                !
 --------------------------------------------------------------------------------
 ! R1    R(1,2)                  1.2053         estimate D2E/DX2                !
 ! R2    R(1,3)                  1.0584         estimate D2E/DX2                !
 ! R3    R(2,4)                  1.0584         estimate D2E/DX2                !
 ! A1    L(2,1,3,-2,-1)        180.0001         estimate D2E/DX2                !
 ! A2    L(1,2,4,-2,-1)        180.0006         estimate D2E/DX2                !
 ! A3    L(2,1,3,-3,-2)        180.0002         estimate D2E/DX2                !
 ! A4    L(1,2,4,-3,-2)        180.0008         estimate D2E/DX2                !
 --------------------------------------------------------------------------------
 Trust Radius=3.00D-01 FncErr=1.00D-07 GrdErr=1.00D-07
 Number of steps in this run=     20 maximum allowed number of steps=    100.
 GradGradGradGradGradGradGradGradGradGradGradGradGradGradGradGradGradGrad

                          Input orientation:                          
 ---------------------------------------------------------------------
 Center     Atomic      Atomic             Coordinates (Angstroms)
 Number     Number       Type             X           Y           Z
 ---------------------------------------------------------------------
      1          6           0        0.812120    0.922050    2.257560
      2          6           0       -0.254660    0.802820    1.709270
      3          1           0        1.748830    1.026740    2.739000
      4          1           0       -1.191370    0.698140    1.227820
 ---------------------------------------------------------------------
                    Distance matrix (angstroms):
                    1          2          3          4
     1  C    0.000000
     2  C    1.205345   0.000000
     3  H    1.058381   2.263726   0.000000
     4  H    2.263730   1.058384   3.322111   0.000000
 Stoichiometry    C2H2
 Framework group  C*V[C*(HCCH)]
 Deg. of freedom     3
 Full point group                 C*V     NOp   4
 Largest Abelian subgroup         C2V     NOp   4
 Largest concise Abelian subgroup C1      NOp   1
                         Standard orientation:                         
 ---------------------------------------------------------------------
 Center     Atomic      Atomic             Coordinates (Angstroms)
 Number     Number       Type             X           Y           Z
 ---------------------------------------------------------------------
      1          6           0        0.000000    0.000000    0.602673
      2          6           0        0.000000    0.000000   -0.602672
      3          1           0        0.000000    0.000000    1.661054
      4          1           0        0.000000    0.000000   -1.661057
 ---------------------------------------------------------------------
 Rotational constants (GHZ):      0.0000000     35.3943217     35.3943217
 Standard basis: 6-31G(d,p) (6D, 7F)
 There are    22 symmetry adapted cartesian basis functions of A1  symmetry.
 There are     2 symmetry adapted cartesian basis functions of A2  symmetry.
 There are     8 symmetry adapted cartesian basis functions of B1  symmetry.
 There are     8 symmetry adapted cartesian basis functions of B2  symmetry.
 There are    22 symmetry adapted basis functions of A1  symmetry.
 There are     2 symmetry adapted basis functions of A2  symmetry.
 There are     8 symmetry adapted basis functions of B1  symmetry.
 There are     8 symmetry adapted basis functions of B2  symmetry.
    40 basis functions,    70 primitive gaussians,    40 cartesian basis functions
     7 alpha electrons        7 beta electrons
       nuclear repulsion energy        24.7692072136 Hartrees.
 NAtoms=    4 NActive=    4 NUniq=    4 SFac= 1.00D+00 NAtFMM=   60 NAOKFM=F Big=F
 Integral buffers will be    131072 words long.
 Raffenetti 1 integral format.
 Two-electron integral symmetry is turned on.
 One-electron integrals computed using PRISM.
 NBasis=    40 RedAO= T EigKep=  2.04D-03  NBF=    22     2     8     8
 NBsUse=    40 1.00D-06 EigRej= -1.00D+00 NBFU=    22     2     8     8
 ExpMin= 1.61D-01 ExpMax= 3.05D+03 ExpMxC= 4.57D+02 IAcc=1 IRadAn=         1 AccDes= 0.00D+00
 Harris functional with IExCor=  205 and IRadAn=       1 diagonalized for initial guess.
 HarFok:  IExCor=  205 AccDes= 0.00D+00 IRadAn=         1 IDoV= 1 UseB2=F ITyADJ=14
 ICtDFT=  3500011 ScaDFX=  1.000000  1.000000  1.000000  1.000000
 FoFCou: FMM=F IPFlag=           0 FMFlag=      100000 FMFlg1=           0
         NFxFlg=           0 DoJE=T BraDBF=F KetDBF=T FulRan=T
         wScrn=  0.000000 ICntrl=     500 IOpCl=  0 I1Cent=   200000004 NGrid=           0
         NMat0=    1 NMatS0=      1 NMatT0=    0 NMatD0=    1 NMtDS0=    0 NMtDT0=    0
 Petite list used in FoFCou.
 Initial guess orbital symmetries:
       Occupied  (SG) (SG) (SG) (SG) (SG) (PI) (PI)
       Virtual   (PI) (PI) (SG) (SG) (SG) (SG) (PI) (PI) (PI) (PI)
                 (SG) (SG) (SG) (SG) (PI) (PI) (DLTA) (DLTA) (SG)
                 (DLTA) (DLTA) (PI) (PI) (SG) (PI) (PI) (SG) (PI)
                 (PI) (SG) (SG) (SG) (SG)
 The electronic state of the initial guess is 1-SG.
 Keep R1 ints in memory in symmetry-blocked form, NReq=1196812.
 Requested convergence on RMS density matrix=1.00D-08 within 128 cycles.
 Requested convergence on MAX density matrix=1.00D-06.
 Requested convergence on             energy=1.00D-06.
 No special actions if energy rises.
 SCF Done:  E(RHF) =  -76.8209907792     A.U. after    9 cycles
            NFock=  9  Conv=0.59D-08     -V/T= 2.0025
 ExpMin= 1.61D-01 ExpMax= 3.05D+03 ExpMxC= 4.57D+02 IAcc=3 IRadAn=         5 AccDes= 0.00D+00
 HarFok:  IExCor=  205 AccDes= 0.00D+00 IRadAn=         5 IDoV=-2 UseB2=F ITyADJ=14
 ICtDFT= 12500011 ScaDFX=  1.000000  1.000000  1.000000  1.000000
 Range of M.O.s used for correlation:     3    40
 NBasis=    40 NAE=     7 NBE=     7 NFC=     2 NFV=     0
 NROrb=     38 NOA=     5 NOB=     5 NVA=    33 NVB=    33

 **** Warning!!: The largest alpha MO coefficient is  0.14322891D+02

 Semi-Direct transformation.
 ModeAB=           2 MOrb=             5 LenV=      33367784
 LASXX=        33652 LTotXX=       33652 LenRXX=       33652
 LTotAB=       37345 MaxLAS=      155800 LenRXY=      155800
 NonZer=      167200 LenScr=      785920 LnRSAI=           0
 LnScr1=           0 LExtra=           0 Total=       975372
 MaxDsk=          -1 SrtSym=           F ITran=            4
 JobTyp=0 Pass  1:  I=   1 to   5.
 (rs|ai) integrals will be sorted in core.
 Spin components of T(2) and E(2):
     alpha-alpha T2 =       0.1246308428D-01 E2=     -0.3083744857D-01
     alpha-beta  T2 =       0.7754239195D-01 E2=     -0.1986486308D+00
     beta-beta   T2 =       0.1246308428D-01 E2=     -0.3083744857D-01
 ANorm=    0.1049985029D+01
 E2 =    -0.2603235279D+00 EUMP2 =    -0.77081314307092D+02
 Keep R2 and R3 ints in memory in symmetry-blocked form, NReq=1160964.
 Iterations=  50 Convergence= 0.100D-07
 Iteration Nr.   1
 **********************
 DD1Dir will call FoFMem   1 times, MxPair=        30
 NAB=    15 NAA=     0 NBB=     0.
 MP4(R+Q)=  0.58565769D-02
 E3=       -0.10358898D-01        EUMP3=      -0.77091673205D+02
 E4(DQ)=   -0.13142742D-02        UMP4(DQ)=   -0.77092987479D+02
 E4(SDQ)=  -0.49327945D-02        UMP4(SDQ)=  -0.77096606000D+02
 DE(Corr)= -0.26462657     E(Corr)=     -77.085617351    
 NORM(A)=   0.10528694D+01
 Iteration Nr.   2
 **********************
 DD1Dir will call FoFMem   1 times, MxPair=        30
 NAB=    15 NAA=     0 NBB=     0.
 DE(Corr)= -0.27349369     E(CORR)=     -77.094484470     Delta=-8.87D-03
 NORM(A)=   0.10589876D+01
 Iteration Nr.   3
 **********************
 DD1Dir will call FoFMem   1 times, MxPair=        30
 NAB=    15 NAA=     0 NBB=     0.
 DE(Corr)= -0.27510724     E(CORR)=     -77.096098019     Delta=-1.61D-03
 NORM(A)=   0.10607747D+01
 Iteration Nr.   4
 **********************
 DD1Dir will call FoFMem   1 times, MxPair=        30
 NAB=    15 NAA=     0 NBB=     0.
 DE(Corr)= -0.27617704     E(CORR)=     -77.097167817     Delta=-1.07D-03
 NORM(A)=   0.10613518D+01
 Iteration Nr.   5
 **********************
 DD1Dir will call FoFMem   1 times, MxPair=        30
 NAB=    15 NAA=     0 NBB=     0.
 DE(Corr)= -0.27632121     E(CORR)=     -77.097311986     Delta=-1.44D-04
 NORM(A)=   0.10613724D+01
 Iteration Nr.   6
 **********************
 DD1Dir will call FoFMem   1 times, MxPair=        30
 NAB=    15 NAA=     0 NBB=     0.
 DE(Corr)= -0.27632606     E(CORR)=     -77.097316844     Delta=-4.86D-06
 NORM(A)=   0.10613727D+01
 Iteration Nr.   7
 **********************
 DD1Dir will call FoFMem   1 times, MxPair=        30
 NAB=    15 NAA=     0 NBB=     0.
 DE(Corr)= -0.27632666     E(CORR)=     -77.097317444     Delta=-6.00D-07
 NORM(A)=   0.10613761D+01
 Iteration Nr.   8
 **********************
 DD1Dir will call FoFMem   1 times, MxPair=        30
 NAB=    15 NAA=     0 NBB=     0.
 DE(Corr)= -0.27632647     E(CORR)=     -77.097317252     Delta= 1.92D-07
 NORM(A)=   0.10613755D+01
 Iteration Nr.   9
 **********************
 DD1Dir will call FoFMem   1 times, MxPair=        30
 NAB=    15 NAA=     0 NBB=     0.
 DE(Corr)= -0.27632670     E(CORR)=     -77.097317478     Delta=-2.26D-07
 NORM(A)=   0.10613756D+01
 Iteration Nr.  10
 **********************
 DD1Dir will call FoFMem   1 times, MxPair=        30
 NAB=    15 NAA=     0 NBB=     0.
 DE(Corr)= -0.27632668     E(CORR)=     -77.097317455     Delta= 2.34D-08
 NORM(A)=   0.10613756D+01
 Iteration Nr.  11
 **********************
 DD1Dir will call FoFMem   1 times, MxPair=        30
 NAB=    15 NAA=     0 NBB=     0.
 DE(Corr)= -0.27632670     E(CORR)=     -77.097317479     Delta=-2.42D-08
 NORM(A)=   0.10613757D+01
 Iteration Nr.  12
 **********************
 DD1Dir will call FoFMem   1 times, MxPair=        30
 NAB=    15 NAA=     0 NBB=     0.
 DE(Corr)= -0.27632671     E(CORR)=     -77.097317489     Delta=-9.51D-09
 NORM(A)=   0.10613757D+01
 Dominant configurations:
 ***********************
 Spin Case        I    J    A    B          Value
   ABAB           6    6    8    8      -0.105682D+00
   ABAB           7    7    9    9      -0.105682D+00
 Largest amplitude= 1.06D-01

 Z-AMPLITUDE ITERATIONS

 Iteration Nr.   1
 **********************
 DD1Dir will call FoFMem   1 times, MxPair=        30
 NAB=    15 NAA=     0 NBB=     0.
 DE(Z)  -0.26762428D+00          E(Z)=    -0.77088615064D+02
 NORM(A)=   0.10613762D+01
 Iteration Nr.   2
 **********************
 DD1Dir will call FoFMem   1 times, MxPair=        30
 NAB=    15 NAA=     0 NBB=     0.
 DE(Z)  -0.26762441D+00          E(Z)=    -0.77088615192D+02
 NORM(A)=   0.10613772D+01
 Iteration Nr.   3
 **********************
 DD1Dir will call FoFMem   1 times, MxPair=        30
 NAB=    15 NAA=     0 NBB=     0.
 DE(Z)  -0.26762462D+00          E(Z)=    -0.77088615399D+02
 NORM(A)=   0.10613782D+01
 Iteration Nr.   4
 **********************
 DD1Dir will call FoFMem   1 times, MxPair=        30
 NAB=    15 NAA=     0 NBB=     0.
 DE(Z)  -0.26762487D+00          E(Z)=    -0.77088615653D+02
 NORM(A)=   0.10613804D+01
 Iteration Nr.   5
 **********************
 DD1Dir will call FoFMem   1 times, MxPair=        30
 NAB=    15 NAA=     0 NBB=     0.
 DE(Z)  -0.26762539D+00          E(Z)=    -0.77088616167D+02
 NORM(A)=   0.10564365D+01
 Iteration Nr.   6
 **********************
 DD1Dir will call FoFMem   1 times, MxPair=        30
 NAB=    15 NAA=     0 NBB=     0.
 DE(Z)  -0.26641151D+00          E(Z)=    -0.77087402289D+02
 NORM(A)=   0.10564417D+01
 Iteration Nr.   7
 **********************
 DD1Dir will call FoFMem   1 times, MxPair=        30
 NAB=    15 NAA=     0 NBB=     0.
 DE(Z)  -0.26641253D+00          E(Z)=    -0.77087403309D+02
 NORM(A)=   0.10564488D+01
 Iteration Nr.   8
 **********************
 DD1Dir will call FoFMem   1 times, MxPair=        30
 NAB=    15 NAA=     0 NBB=     0.
 DE(Z)  -0.26641388D+00          E(Z)=    -0.77087404655D+02
 NORM(A)=   0.10564489D+01
 Iteration Nr.   9
 **********************
 DD1Dir will call FoFMem   1 times, MxPair=        30
 NAB=    15 NAA=     0 NBB=     0.
 DE(Z)  -0.26641388D+00          E(Z)=    -0.77087404660D+02
 NORM(A)=   0.10564487D+01
 Iteration Nr.  10
 **********************
 DD1Dir will call FoFMem   1 times, MxPair=        30
 NAB=    15 NAA=     0 NBB=     0.
 DE(Z)  -0.26641385D+00          E(Z)=    -0.77087404633D+02
 NORM(A)=   0.10564487D+01
 Iteration Nr.  11
 **********************
 DD1Dir will call FoFMem   1 times, MxPair=        30
 NAB=    15 NAA=     0 NBB=     0.
 DE(Z)  -0.26641385D+00          E(Z)=    -0.77087404632D+02
 NORM(A)=   0.10564487D+01
 Discarding MO integrals.
          IDoAtm=1111
          Differentiating once with respect to electric field.
                with respect to dipole field.
          Differentiating once with respect to nuclear coordinates.
 Keep R1 ints in memory in symmetry-blocked form, NReq=1180334.
          There are     1 degrees of freedom in the 1st order CPHF.  IDoFFX=0 NUNeed=     1.
 LinEq1:  Iter=  0 NonCon=     1 RMS=7.17D-03 Max=6.50D-02 NDo=     1
 AX will form     1 AO Fock derivatives at one time.
 LinEq1:  Iter=  1 NonCon=     1 RMS=1.76D-03 Max=1.87D-02 NDo=     1
 LinEq1:  Iter=  2 NonCon=     1 RMS=3.18D-04 Max=2.37D-03 NDo=     1
 LinEq1:  Iter=  3 NonCon=     1 RMS=3.75D-05 Max=2.79D-04 NDo=     1
 LinEq1:  Iter=  4 NonCon=     1 RMS=2.67D-06 Max=1.67D-05 NDo=     1
 LinEq1:  Iter=  5 NonCon=     1 RMS=1.85D-07 Max=1.74D-06 NDo=     1
 LinEq1:  Iter=  6 NonCon=     1 RMS=9.75D-09 Max=4.36D-08 NDo=     1
 LinEq1:  Iter=  7 NonCon=     1 RMS=1.99D-09 Max=1.73D-08 NDo=     1
 LinEq1:  Iter=  8 NonCon=     1 RMS=5.04D-10 Max=4.47D-09 NDo=     1
 LinEq1:  Iter=  9 NonCon=     0 RMS=4.04D-11 Max=2.38D-10 NDo=     1
 Linear equations converged to 1.000D-10 1.000D-09 after     9 iterations.
 End of Minotr F.D. properties file   721 does not exist.
 End of Minotr F.D. properties file   722 does not exist.
 End of Minotr F.D. properties file   788 does not exist.

 **********************************************************************

            Population analysis using the SCF density.

 **********************************************************************

 Orbital symmetries:
       Occupied  (SG) (SG) (SG) (SG) (SG) (PI) (PI)
       Virtual   (PI) (PI) (SG) (SG) (SG) (SG) (PI) (PI) (PI) (PI)
                 (SG) (SG) (SG) (SG) (PI) (PI) (SG) (DLTA) (DLTA)
                 (PI) (PI) (DLTA) (DLTA) (SG) (PI) (PI) (SG) (PI)
                 (PI) (SG) (SG) (SG) (SG)
 The electronic state is 1-SG.
 Alpha  occ. eigenvalues --  -11.23997 -11.23635  -1.01902  -0.76132  -0.67131
 Alpha  occ. eigenvalues --   -0.39990  -0.39990
 Alpha virt. eigenvalues --    0.21421   0.21421   0.25040   0.29715   0.61457
 Alpha virt. eigenvalues --    0.64460   0.74715   0.74715   0.90713   0.90713
 Alpha virt. eigenvalues --    0.93939   1.03020   1.28152   1.53651   1.65073
 Alpha virt. eigenvalues --    1.65073   1.70672   1.81767   1.81767   2.22961
 Alpha virt. eigenvalues --    2.22961   2.25037   2.25037   2.57601   2.70521
 Alpha virt. eigenvalues --    2.70521   3.11264   3.38900   3.38900   3.74237
 Alpha virt. eigenvalues --    4.22938   5.02108   5.81846
          Condensed to atoms (all electrons):
               1          2          3          4
     1  C    4.773659   1.104619   0.361984  -0.004705
     2  C    1.104619   4.773661  -0.004705   0.361983
     3  H    0.361984  -0.004705   0.405413   0.001752
     4  H   -0.004705   0.361983   0.001752   0.405412
 Mulliken charges:
               1
     1  C   -0.235557
     2  C   -0.235557
     3  H    0.235557
     4  H    0.235558
 Sum of Mulliken charges =   0.00000
 Mulliken charges with hydrogens summed into heavy atoms:
               1
     1  C    0.000000
     2  C    0.000000
 Electronic spatial extent (au):  <R**2>=             60.0492
 Charge=              0.0000 electrons
 Dipole moment (field-independent basis, Debye):
    X=              0.0000    Y=              0.0000    Z=              0.0000  Tot=              0.0000
 Quadrupole moment (field-independent basis, Debye-Ang):
   XX=            -13.3891   YY=            -13.3891   ZZ=             -6.5498
   XY=              0.0000   XZ=              0.0000   YZ=              0.0000
 Traceless Quadrupole moment (field-independent basis, Debye-Ang):
   XX=             -2.2798   YY=             -2.2798   ZZ=              4.5596
   XY=              0.0000   XZ=              0.0000   YZ=              0.0000
 Octapole moment (field-independent basis, Debye-Ang**2):
  XXX=              0.0000  YYY=              0.0000  ZZZ=              0.0000  XYY=              0.0000
  XXY=              0.0000  XXZ=              0.0000  XZZ=              0.0000  YZZ=              0.0000
  YYZ=              0.0000  XYZ=              0.0000
 Hexadecapole moment (field-independent basis, Debye-Ang**3):
 XXXX=            -14.1525 YYYY=            -14.1525 ZZZZ=            -35.6967 XXXY=              0.0000
 XXXZ=              0.0000 YYYX=              0.0000 YYYZ=              0.0000 ZZZX=              0.0000
 ZZZY=              0.0000 XXYY=             -4.7175 XXZZ=            -11.7650 YYZZ=            -11.7650
 XXYZ=              0.0000 YYXZ=              0.0000 ZZXY=              0.0000
 N-N= 2.476920721361D+01 E-N=-2.283559646337D+02  KE= 7.663111352436D+01
 Symmetry A1   KE= 7.242927361189D+01
 Symmetry A2   KE= 1.008211304915D-32
 Symmetry B1   KE= 2.100919956236D+00
 Symmetry B2   KE= 2.100919956236D+00
 Calling FoFJK, ICntrl=  10002127 FMM=F ISym2X=1 I1Cent= 0 IOpClX= 0 NMat=1 NMatS=1 NMatT=0.
 ***** Axes restored to original set *****
 -------------------------------------------------------------------
 Center     Atomic                   Forces (Hartrees/Bohr)
 Number     Number              X              Y              Z
 -------------------------------------------------------------------
      1        6           0.008865368    0.000990823    0.004556532
      2        6          -0.008867978   -0.000991115   -0.004557873
      3        1           0.003775767    0.000421992    0.001940630
      4        1          -0.003773157   -0.000421701   -0.001939289
 -------------------------------------------------------------------
 Cartesian Forces:  Max     0.008867978 RMS     0.004445147

 GradGradGradGradGradGradGradGradGradGradGradGradGradGradGradGradGradGrad
 Berny optimization.
 FormGI is forming the generalized inverse of G from B-inverse, IUseBI=4.
 Internal  Forces:  Max     0.014283118 RMS     0.005860075
 Search for a local minimum.
 Step number   1 out of a maximum of   20
 All quantities printed in internal units (Hartrees-Bohrs-Radians)
 Mixed Optimization -- RFO/linear search
 Second derivative matrix not updated -- first step.
 The second derivative matrix:
                          R1        R2        R3        A1        A2
           R1           1.02182
           R2           0.00000   0.38738
           R3           0.00000   0.00000   0.38738
           A1           0.00000   0.00000   0.00000   0.00653
           A2           0.00000   0.00000   0.00000   0.00000   0.00653
           A3           0.00000   0.00000   0.00000   0.00000   0.00000
           A4           0.00000   0.00000   0.00000   0.00000   0.00000
                          A3        A4
           A3           0.00653
           A4           0.00000   0.00653
 ITU=  0
     Eigenvalues ---    0.00653   0.00653   0.00653   0.00653   0.38738
     Eigenvalues ---    0.38738   1.02182
 RFO step:  Lambda=-2.93424608D-04 EMin= 6.53043272D-03
 Linear search not attempted -- first point.
 Iteration  1 RMS(Cart)=  0.01031481 RMS(Int)=  0.00000001
 Iteration  2 RMS(Cart)=  0.00000001 RMS(Int)=  0.00000000
 ClnCor:  largest displacement from symmetrization is 2.13D-08 for atom     1.
 Variable       Old X    -DE/DX   Delta X   Delta X   Delta X     New X
                                 (Linear)    (Quad)   (Total)
    R1        2.27777   0.01428   0.00000   0.01397   0.01397   2.29175
    R2        2.00005   0.00427   0.00000   0.01100   0.01100   2.01105
    R3        2.00006   0.00426   0.00000   0.01100   0.01100   2.01105
    A1        3.14159   0.00000   0.00000   0.00000   0.00000   3.14159
    A2        3.14159   0.00000   0.00000   0.00000   0.00000   3.14159
    A3        3.14159   0.00000   0.00000   0.00000   0.00000   3.14159
    A4        3.14159   0.00000   0.00000   0.00000   0.00000   3.14159
         Item               Value     Threshold  Converged?
 Maximum Force            0.014283     0.000450     NO 
 RMS     Force            0.005860     0.000300     NO 
 Maximum Displacement     0.015922     0.001800     NO 
 RMS     Displacement     0.010315     0.001200     NO 
 Predicted change in Energy=-1.467765D-04
 GradGradGradGradGradGradGradGradGradGradGradGradGradGradGradGradGradGrad

                          Input orientation:                          
 ---------------------------------------------------------------------
 Center     Atomic      Atomic             Coordinates (Angstroms)
 Number     Number       Type             X           Y           Z
 ---------------------------------------------------------------------
      1          6           0        0.815391    0.922415    2.259242
      2          6           0       -0.257933    0.802456    1.707586
      3          1           0        1.757255    1.027681    2.743331
      4          1           0       -1.199796    0.697191    1.223497
 ---------------------------------------------------------------------
                    Distance matrix (angstroms):
                    1          2          3          4
     1  C    0.000000
     2  C    1.212740   0.000000
     3  H    1.064204   2.276944   0.000000
     4  H    2.276944   1.064204   3.341148   0.000000
 Stoichiometry    C2H2
 Framework group  C*V[C*(HCCH)]
 Deg. of freedom     3
 Full point group                 C*V     NOp   4
 Largest Abelian subgroup         C2V     NOp   4
 Largest concise Abelian subgroup C1      NOp   1
                         Standard orientation:                         
 ---------------------------------------------------------------------
 Center     Atomic      Atomic             Coordinates (Angstroms)
 Number     Number       Type             X           Y           Z
 ---------------------------------------------------------------------
      1          6           0        0.000000    0.000000    0.606370
      2          6           0        0.000000    0.000000   -0.606370
      3          1           0        0.000000    0.000000    1.670574
      4          1           0        0.000000    0.000000   -1.670574
 ---------------------------------------------------------------------
 Rotational constants (GHZ):      0.0000000     34.9749485     34.9749485
 Standard basis: 6-31G(d,p) (6D, 7F)
 There are    22 symmetry adapted cartesian basis functions of A1  symmetry.
 There are     2 symmetry adapted cartesian basis functions of A2  symmetry.
 There are     8 symmetry adapted cartesian basis functions of B1  symmetry.
 There are     8 symmetry adapted cartesian basis functions of B2  symmetry.
 There are    22 symmetry adapted basis functions of A1  symmetry.
 There are     2 symmetry adapted basis functions of A2  symmetry.
 There are     8 symmetry adapted basis functions of B1  symmetry.
 There are     8 symmetry adapted basis functions of B2  symmetry.
    40 basis functions,    70 primitive gaussians,    40 cartesian basis functions
     7 alpha electrons        7 beta electrons
       nuclear repulsion energy        24.6228257894 Hartrees.
 NAtoms=    4 NActive=    4 NUniq=    4 SFac= 1.00D+00 NAtFMM=   60 NAOKFM=F Big=F
 Integral buffers will be    131072 words long.
 Raffenetti 1 integral format.
 Two-electron integral symmetry is turned on.
 One-electron integrals computed using PRISM.
 NBasis=    40 RedAO= T EigKep=  2.14D-03  NBF=    22     2     8     8
 NBsUse=    40 1.00D-06 EigRej= -1.00D+00 NBFU=    22     2     8     8
 Initial guess from the checkpoint file:  "/scr/Gau-22860.chk"
 B after Tr=     0.000000    0.000000    0.000000
         Rot=    1.000000    0.000000    0.000000    0.000000 Ang=   0.00 deg.
 Initial guess orbital symmetries:
       Occupied  (SG) (SG) (SG) (SG) (SG) (PI) (PI)
       Virtual   (SG) (SG) (SG) (SG) (SG) (SG) (SG) (SG) (DLTA)
                 (DLTA) (SG) (SG) (SG) (SG) (SG) (SG) (SG) (DLTA)
                 (DLTA) (PI) (PI) (PI) (PI) (PI) (PI) (PI) (PI)
                 (PI) (PI) (PI) (PI) (PI) (PI)
 Keep R1 ints in memory in symmetry-blocked form, NReq=1196812.
 Requested convergence on RMS density matrix=1.00D-08 within 128 cycles.
 Requested convergence on MAX density matrix=1.00D-06.
 Requested convergence on             energy=1.00D-06.
 No special actions if energy rises.
 SCF Done:  E(RHF) =  -76.8201640346     A.U. after    7 cycles
            NFock=  7  Conv=0.52D-08     -V/T= 2.0032
 ExpMin= 1.61D-01 ExpMax= 3.05D+03 ExpMxC= 4.57D+02 IAcc=3 IRadAn=         5 AccDes= 0.00D+00
 HarFok:  IExCor=  205 AccDes= 0.00D+00 IRadAn=         5 IDoV=-2 UseB2=F ITyADJ=14
 ICtDFT= 12500011 ScaDFX=  1.000000  1.000000  1.000000  1.000000
 Range of M.O.s used for correlation:     3    40
 NBasis=    40 NAE=     7 NBE=     7 NFC=     2 NFV=     0
 NROrb=     38 NOA=     5 NOB=     5 NVA=    33 NVB=    33

 **** Warning!!: The largest alpha MO coefficient is  0.13998417D+02

 Semi-Direct transformation.
 ModeAB=           2 MOrb=             5 LenV=      33367784
 LASXX=        33652 LTotXX=       33652 LenRXX=       33652
 LTotAB=       37345 MaxLAS=      155800 LenRXY=      155800
 NonZer=      167200 LenScr=      785920 LnRSAI=           0
 LnScr1=           0 LExtra=           0 Total=       975372
 MaxDsk=          -1 SrtSym=           F ITran=            4
 JobTyp=0 Pass  1:  I=   1 to   5.
 (rs|ai) integrals will be sorted in core.
 Spin components of T(2) and E(2):
     alpha-alpha T2 =       0.1261794458D-01 E2=     -0.3097692050D-01
     alpha-beta  T2 =       0.7850311995D-01 E2=     -0.1994823873D+00
     beta-beta   T2 =       0.1261794458D-01 E2=     -0.3097692050D-01
 ANorm=    0.1050589839D+01
 E2 =    -0.2614362283D+00 EUMP2 =    -0.77081600262897D+02
 Keep R2 and R3 ints in memory in symmetry-blocked form, NReq=1160964.
 Iterations=  50 Convergence= 0.100D-07
 Iteration Nr.   1
 **********************
 DD1Dir will call FoFMem   1 times, MxPair=        30
 NAB=    15 NAA=     0 NBB=     0.
 MP4(R+Q)=  0.59146282D-02
 E3=       -0.10007286D-01        EUMP3=      -0.77091607549D+02
 E4(DQ)=   -0.13990227D-02        UMP4(DQ)=   -0.77093006572D+02
 E4(SDQ)=  -0.51266733D-02        UMP4(SDQ)=  -0.77096734222D+02
 DE(Corr)= -0.26532120     E(Corr)=     -77.085485236    
 NORM(A)=   0.10533440D+01
 Iteration Nr.   2
 **********************
 DD1Dir will call FoFMem   1 times, MxPair=        30
 NAB=    15 NAA=     0 NBB=     0.
 DE(Corr)= -0.27439117     E(CORR)=     -77.094555208     Delta=-9.07D-03
 NORM(A)=   0.10596369D+01
 Iteration Nr.   3
 **********************
 DD1Dir will call FoFMem   1 times, MxPair=        30
 NAB=    15 NAA=     0 NBB=     0.
 DE(Corr)= -0.27601911     E(CORR)=     -77.096183145     Delta=-1.63D-03
 NORM(A)=   0.10614981D+01
 Iteration Nr.   4
 **********************
 DD1Dir will call FoFMem   1 times, MxPair=        30
 NAB=    15 NAA=     0 NBB=     0.
 DE(Corr)= -0.27712801     E(CORR)=     -77.097292050     Delta=-1.11D-03
 NORM(A)=   0.10621068D+01
 Iteration Nr.   5
 **********************
 DD1Dir will call FoFMem   1 times, MxPair=        30
 NAB=    15 NAA=     0 NBB=     0.
 DE(Corr)= -0.27727943     E(CORR)=     -77.097443467     Delta=-1.51D-04
 NORM(A)=   0.10621293D+01
 Iteration Nr.   6
 **********************
 DD1Dir will call FoFMem   1 times, MxPair=        30
 NAB=    15 NAA=     0 NBB=     0.
 DE(Corr)= -0.27728468     E(CORR)=     -77.097448712     Delta=-5.25D-06
 NORM(A)=   0.10621295D+01
 Iteration Nr.   7
 **********************
 DD1Dir will call FoFMem   1 times, MxPair=        30
 NAB=    15 NAA=     0 NBB=     0.
 DE(Corr)= -0.27728533     E(CORR)=     -77.097449361     Delta=-6.49D-07
 NORM(A)=   0.10621333D+01
 Iteration Nr.   8
 **********************
 DD1Dir will call FoFMem   1 times, MxPair=        30
 NAB=    15 NAA=     0 NBB=     0.
 DE(Corr)= -0.27728511     E(CORR)=     -77.097449141     Delta= 2.20D-07
 NORM(A)=   0.10621325D+01
 Iteration Nr.   9
 **********************
 DD1Dir will call FoFMem   1 times, MxPair=        30
 NAB=    15 NAA=     0 NBB=     0.
 DE(Corr)= -0.27728535     E(CORR)=     -77.097449385     Delta=-2.44D-07
 NORM(A)=   0.10621327D+01
 Iteration Nr.  10
 **********************
 DD1Dir will call FoFMem   1 times, MxPair=        30
 NAB=    15 NAA=     0 NBB=     0.
 DE(Corr)= -0.27728532     E(CORR)=     -77.097449359     Delta= 2.57D-08
 NORM(A)=   0.10621327D+01
 Iteration Nr.  11
 **********************
 DD1Dir will call FoFMem   1 times, MxPair=        30
 NAB=    15 NAA=     0 NBB=     0.
 DE(Corr)= -0.27728535     E(CORR)=     -77.097449386     Delta=-2.67D-08
 NORM(A)=   0.10621328D+01
 Iteration Nr.  12
 **********************
 DD1Dir will call FoFMem   1 times, MxPair=        30
 NAB=    15 NAA=     0 NBB=     0.
 DE(Corr)= -0.27728536     E(CORR)=     -77.097449396     Delta=-1.04D-08
 NORM(A)=   0.10621328D+01
 Iteration Nr.  13
 **********************
 DD1Dir will call FoFMem   1 times, MxPair=        30
 NAB=    15 NAA=     0 NBB=     0.
 DE(Corr)= -0.27728537     E(CORR)=     -77.097449403     Delta=-6.75D-09
 NORM(A)=   0.10621328D+01
 Dominant configurations:
 ***********************
 Spin Case        I    J    A    B          Value
   ABAB           7    7    8    8      -0.107129D+00
   ABAB           6    6    9    9      -0.107129D+00
 Largest amplitude= 1.07D-01

 Z-AMPLITUDE ITERATIONS

 Iteration Nr.   1
 **********************
 DD1Dir will call FoFMem   1 times, MxPair=        30
 NAB=    15 NAA=     0 NBB=     0.
 DE(Z)  -0.26844127D+00          E(Z)=    -0.77088605300D+02
 NORM(A)=   0.10621339D+01
 Iteration Nr.   2
 **********************
 DD1Dir will call FoFMem   1 times, MxPair=        30
 NAB=    15 NAA=     0 NBB=     0.
 DE(Z)  -0.26844155D+00          E(Z)=    -0.77088605581D+02
 NORM(A)=   0.10621347D+01
 Iteration Nr.   3
 **********************
 DD1Dir will call FoFMem   1 times, MxPair=        30
 NAB=    15 NAA=     0 NBB=     0.
 DE(Z)  -0.26844170D+00          E(Z)=    -0.77088605735D+02
 NORM(A)=   0.10621364D+01
 Iteration Nr.   4
 **********************
 DD1Dir will call FoFMem   1 times, MxPair=        30
 NAB=    15 NAA=     0 NBB=     0.
 DE(Z)  -0.26844209D+00          E(Z)=    -0.77088606126D+02
 NORM(A)=   0.10621347D+01
 Iteration Nr.   5
 **********************
 DD1Dir will call FoFMem   1 times, MxPair=        30
 NAB=    15 NAA=     0 NBB=     0.
 DE(Z)  -0.26844170D+00          E(Z)=    -0.77088605739D+02
 NORM(A)=   0.10570744D+01
 Iteration Nr.   6
 **********************
 DD1Dir will call FoFMem   1 times, MxPair=        30
 NAB=    15 NAA=     0 NBB=     0.
 DE(Z)  -0.26720638D+00          E(Z)=    -0.77087370419D+02
 NORM(A)=   0.10570865D+01
 Iteration Nr.   7
 **********************
 DD1Dir will call FoFMem   1 times, MxPair=        30
 NAB=    15 NAA=     0 NBB=     0.
 DE(Z)  -0.26720823D+00          E(Z)=    -0.77087372268D+02
 NORM(A)=   0.10570881D+01
 Iteration Nr.   8
 **********************
 DD1Dir will call FoFMem   1 times, MxPair=        30
 NAB=    15 NAA=     0 NBB=     0.
 DE(Z)  -0.26720860D+00          E(Z)=    -0.77087372631D+02
 NORM(A)=   0.10570882D+01
 Iteration Nr.   9
 **********************
 DD1Dir will call FoFMem   1 times, MxPair=        30
 NAB=    15 NAA=     0 NBB=     0.
 DE(Z)  -0.26720863D+00          E(Z)=    -0.77087372665D+02
 NORM(A)=   0.10570883D+01
 Iteration Nr.  10
 **********************
 DD1Dir will call FoFMem   1 times, MxPair=        30
 NAB=    15 NAA=     0 NBB=     0.
 DE(Z)  -0.26720863D+00          E(Z)=    -0.77087372666D+02
 NORM(A)=   0.10570883D+01
 Iteration Nr.  11
 **********************
 DD1Dir will call FoFMem   1 times, MxPair=        30
 NAB=    15 NAA=     0 NBB=     0.
 DE(Z)  -0.26720864D+00          E(Z)=    -0.77087372672D+02
 NORM(A)=   0.10570883D+01
 Discarding MO integrals.
          IDoAtm=1111
          Differentiating once with respect to electric field.
                with respect to dipole field.
          Differentiating once with respect to nuclear coordinates.
 Keep R1 ints in memory in symmetry-blocked form, NReq=1180334.
          There are     1 degrees of freedom in the 1st order CPHF.  IDoFFX=0 NUNeed=     1.
 LinEq1:  Iter=  0 NonCon=     1 RMS=7.26D-03 Max=6.60D-02 NDo=     1
 AX will form     1 AO Fock derivatives at one time.
 LinEq1:  Iter=  1 NonCon=     1 RMS=1.79D-03 Max=1.91D-02 NDo=     1
 LinEq1:  Iter=  2 NonCon=     1 RMS=3.22D-04 Max=2.41D-03 NDo=     1
 LinEq1:  Iter=  3 NonCon=     1 RMS=3.79D-05 Max=2.81D-04 NDo=     1
 LinEq1:  Iter=  4 NonCon=     1 RMS=2.71D-06 Max=1.69D-05 NDo=     1
 LinEq1:  Iter=  5 NonCon=     1 RMS=1.87D-07 Max=1.76D-06 NDo=     1
 LinEq1:  Iter=  6 NonCon=     1 RMS=9.65D-09 Max=4.38D-08 NDo=     1
 LinEq1:  Iter=  7 NonCon=     1 RMS=5.84D-10 Max=4.66D-09 NDo=     1
 LinEq1:  Iter=  8 NonCon=     1 RMS=2.39D-10 Max=1.93D-09 NDo=     1
 LinEq1:  Iter=  9 NonCon=     0 RMS=4.05D-11 Max=2.32D-10 NDo=     1
 Linear equations converged to 1.000D-10 1.000D-09 after     9 iterations.
 End of Minotr F.D. properties file   721 does not exist.
 End of Minotr F.D. properties file   722 does not exist.
 End of Minotr F.D. properties file   788 does not exist.
 Calling FoFJK, ICntrl=  10002127 FMM=F ISym2X=1 I1Cent= 0 IOpClX= 0 NMat=1 NMatS=1 NMatT=0.
 ***** Axes restored to original set *****
 -------------------------------------------------------------------
 Center     Atomic                   Forces (Hartrees/Bohr)
 Number     Number              X              Y              Z
 -------------------------------------------------------------------
      1        6          -0.000752041   -0.000084051   -0.000386526
      2        6           0.000752338    0.000084084    0.000386679
      3        1          -0.000384131   -0.000042932   -0.000197431
      4        1           0.000383833    0.000042899    0.000197279
 -------------------------------------------------------------------
 Cartesian Forces:  Max     0.000752338 RMS     0.000389562

 GradGradGradGradGradGradGradGradGradGradGradGradGradGradGradGradGradGrad
 Berny optimization.
 Using GEDIIS/GDIIS optimizer.
 FormGI is forming the generalized inverse of G from B-inverse, IUseBI=4.
 Internal  Forces:  Max     0.001283751 RMS     0.000537784
 Search for a local minimum.
 Step number   2 out of a maximum of   20
 All quantities printed in internal units (Hartrees-Bohrs-Radians)
 Mixed Optimization -- En-DIIS/RFO-DIIS
 Update second derivatives using D2CorX and points    1    2
 DE= -1.32D-04 DEPred=-1.47D-04 R= 8.99D-01
 TightC=F SS=  1.41D+00  RLast= 2.09D-02 DXNew= 5.0454D-01 6.2736D-02
 Trust test= 8.99D-01 RLast= 2.09D-02 DXMaxT set to 3.00D-01
 The second derivative matrix:
                          R1        R2        R3        A1        A2
           R1           1.08178
           R2           0.02046   0.39426
           R3           0.02044   0.00688   0.39425
           A1           0.00000   0.00000   0.00000   0.00653
           A2           0.00000   0.00000   0.00000   0.00000   0.00653
           A3           0.00000   0.00000   0.00000   0.00000   0.00000
           A4           0.00000   0.00000   0.00000   0.00000   0.00000
                          A3        A4
           A3           0.00653
           A4           0.00000   0.00653
 ITU=  1  0
 Use linear search instead of GDIIS.
     Eigenvalues ---    0.00653   0.00653   0.00653   0.00653   0.38738
     Eigenvalues ---    0.39990   1.08301
 RFO step:  Lambda=-1.02359594D-08 EMin= 6.53043272D-03
 Quartic linear search produced a step of -0.08721.
 Iteration  1 RMS(Cart)=  0.00092733 RMS(Int)=  0.00000000
 SLEqS3 Cycle:   121 Max:0.453310E-08 RMS:0.214714E-08 Conv:0.463251E-14
 SLEqS3 Cycle:   121 Max:0.451744E-08 RMS:0.214106E-08 Conv:0.463251E-14
 Iteration  2 RMS(Cart)=  0.00000000 RMS(Int)=  0.00000000
 ClnCor:  largest displacement from symmetrization is 5.82D-09 for atom     1.
 Variable       Old X    -DE/DX   Delta X   Delta X   Delta X     New X
                                 (Linear)    (Quad)   (Total)
    R1        2.29175  -0.00128  -0.00122   0.00006  -0.00116   2.29058
    R2        2.01105  -0.00043  -0.00096  -0.00009  -0.00105   2.01000
    R3        2.01105  -0.00043  -0.00096  -0.00009  -0.00105   2.01000
    A1        3.14159   0.00000   0.00000   0.00000   0.00000   3.14159
    A2        3.14159   0.00000   0.00000   0.00000   0.00000   3.14159
    A3        3.14159   0.00000   0.00000   0.00000   0.00000   3.14159
    A4        3.14159   0.00000   0.00000   0.00000   0.00000   3.14159
         Item               Value     Threshold  Converged?
 Maximum Force            0.001284     0.000450     NO 
 RMS     Force            0.000538     0.000300     NO 
 Maximum Displacement     0.001447     0.001800     YES
 RMS     Displacement     0.000927     0.001200     YES
 Predicted change in Energy=-1.180244D-06
 GradGradGradGradGradGradGradGradGradGradGradGradGradGradGradGradGradGrad

                          Input orientation:                          
 ---------------------------------------------------------------------
 Center     Atomic      Atomic             Coordinates (Angstroms)
 Number     Number       Type             X           Y           Z
 ---------------------------------------------------------------------
      1          6           0        0.815119    0.922384    2.259102
      2          6           0       -0.257660    0.802487    1.707726
      3          1           0        1.756489    1.027595    2.742938
      4          1           0       -1.199030    0.697276    1.223890
 ---------------------------------------------------------------------
                    Distance matrix (angstroms):
                    1          2          3          4
     1  C    0.000000
     2  C    1.212125   0.000000
     3  H    1.063646   2.275772   0.000000
     4  H    2.275772   1.063646   3.339418   0.000000
 Stoichiometry    C2H2
 Framework group  C*V[C*(HCCH)]
 Deg. of freedom     3
 Full point group                 C*V     NOp   4
 Largest Abelian subgroup         C2V     NOp   4
 Largest concise Abelian subgroup C1      NOp   1
                         Standard orientation:                         
 ---------------------------------------------------------------------
 Center     Atomic      Atomic             Coordinates (Angstroms)
 Number     Number       Type             X           Y           Z
 ---------------------------------------------------------------------
      1          6           0        0.000000    0.000000    0.606063
      2          6           0        0.000000    0.000000   -0.606063
      3          1           0        0.000000    0.000000    1.669709
      4          1           0        0.000000    0.000000   -1.669709
 ---------------------------------------------------------------------
 Rotational constants (GHZ):      0.0000000     35.0107314     35.0107314
 Standard basis: 6-31G(d,p) (6D, 7F)
 There are    22 symmetry adapted cartesian basis functions of A1  symmetry.
 There are     2 symmetry adapted cartesian basis functions of A2  symmetry.
 There are     8 symmetry adapted cartesian basis functions of B1  symmetry.
 There are     8 symmetry adapted cartesian basis functions of B2  symmetry.
 There are    22 symmetry adapted basis functions of A1  symmetry.
 There are     2 symmetry adapted basis functions of A2  symmetry.
 There are     8 symmetry adapted basis functions of B1  symmetry.
 There are     8 symmetry adapted basis functions of B2  symmetry.
    40 basis functions,    70 primitive gaussians,    40 cartesian basis functions
     7 alpha electrons        7 beta electrons
       nuclear repulsion energy        24.6354400935 Hartrees.
 NAtoms=    4 NActive=    4 NUniq=    4 SFac= 1.00D+00 NAtFMM=   60 NAOKFM=F Big=F
 Integral buffers will be    131072 words long.
 Raffenetti 1 integral format.
 Two-electron integral symmetry is turned on.
 One-electron integrals computed using PRISM.
 NBasis=    40 RedAO= T EigKep=  2.13D-03  NBF=    22     2     8     8
 NBsUse=    40 1.00D-06 EigRej= -1.00D+00 NBFU=    22     2     8     8
 Initial guess from the checkpoint file:  "/scr/Gau-22860.chk"
 B after Tr=     0.000000    0.000000    0.000000
         Rot=    1.000000    0.000000    0.000000    0.000000 Ang=   0.00 deg.
 Initial guess orbital symmetries:
       Occupied  (SG) (SG) (SG) (SG) (SG) (PI) (PI)
       Virtual   (SG) (SG) (SG) (SG) (SG) (SG) (SG) (SG) (DLTA)
                 (DLTA) (SG) (SG) (SG) (SG) (SG) (SG) (SG) (DLTA)
                 (DLTA) (PI) (PI) (PI) (PI) (PI) (PI) (PI) (PI)
                 (PI) (PI) (PI) (PI) (PI) (PI)
 Keep R1 ints in memory in symmetry-blocked form, NReq=1196812.
 Requested convergence on RMS density matrix=1.00D-08 within 128 cycles.
 Requested convergence on MAX density matrix=1.00D-06.
 Requested convergence on             energy=1.00D-06.
 No special actions if energy rises.
 SCF Done:  E(RHF) =  -76.8202468406     A.U. after    6 cycles
            NFock=  6  Conv=0.15D-08     -V/T= 2.0031
 ExpMin= 1.61D-01 ExpMax= 3.05D+03 ExpMxC= 4.57D+02 IAcc=3 IRadAn=         5 AccDes= 0.00D+00
 HarFok:  IExCor=  205 AccDes= 0.00D+00 IRadAn=         5 IDoV=-2 UseB2=F ITyADJ=14
 ICtDFT= 12500011 ScaDFX=  1.000000  1.000000  1.000000  1.000000
 Range of M.O.s used for correlation:     3    40
 NBasis=    40 NAE=     7 NBE=     7 NFC=     2 NFV=     0
 NROrb=     38 NOA=     5 NOB=     5 NVA=    33 NVB=    33

 **** Warning!!: The largest alpha MO coefficient is  0.14024977D+02

 Semi-Direct transformation.
 ModeAB=           2 MOrb=             5 LenV=      33367784
 LASXX=        33652 LTotXX=       33652 LenRXX=       33652
 LTotAB=       37345 MaxLAS=      155800 LenRXY=      155800
 NonZer=      167200 LenScr=      785920 LnRSAI=           0
 LnScr1=           0 LExtra=           0 Total=       975372
 MaxDsk=          -1 SrtSym=           F ITran=            4
 JobTyp=0 Pass  1:  I=   1 to   5.
 (rs|ai) integrals will be sorted in core.
 Spin components of T(2) and E(2):
     alpha-alpha T2 =       0.1260483821D-01 E2=     -0.3096519541D-01
     alpha-beta  T2 =       0.7842092319D-01 E2=     -0.1994114970D+00
     beta-beta   T2 =       0.1260483821D-01 E2=     -0.3096519541D-01
 ANorm=    0.1050538243D+01
 E2 =    -0.2613418878D+00 EUMP2 =    -0.77081588728352D+02
 Keep R2 and R3 ints in memory in symmetry-blocked form, NReq=1160964.
 Iterations=  50 Convergence= 0.100D-07
 Iteration Nr.   1
 **********************
 DD1Dir will call FoFMem   1 times, MxPair=        30
 NAB=    15 NAA=     0 NBB=     0.
 MP4(R+Q)=  0.59097589D-02
 E3=       -0.10037190D-01        EUMP3=      -0.77091625919D+02
 E4(DQ)=   -0.13915168D-02        UMP4(DQ)=   -0.77093017435D+02
 E4(SDQ)=  -0.51099323D-02        UMP4(SDQ)=  -0.77096735851D+02
 DE(Corr)= -0.26526236     E(Corr)=     -77.085509197    
 NORM(A)=   0.10533032D+01
 Iteration Nr.   2
 **********************
 DD1Dir will call FoFMem   1 times, MxPair=        30
 NAB=    15 NAA=     0 NBB=     0.
 DE(Corr)= -0.27431495     E(CORR)=     -77.094561794     Delta=-9.05D-03
 NORM(A)=   0.10595811D+01
 Iteration Nr.   3
 **********************
 DD1Dir will call FoFMem   1 times, MxPair=        30
 NAB=    15 NAA=     0 NBB=     0.
 DE(Corr)= -0.27594154     E(CORR)=     -77.096188382     Delta=-1.63D-03
 NORM(A)=   0.10614359D+01
 Iteration Nr.   4
 **********************
 DD1Dir will call FoFMem   1 times, MxPair=        30
 NAB=    15 NAA=     0 NBB=     0.
 DE(Corr)= -0.27704707     E(CORR)=     -77.097293912     Delta=-1.11D-03
 NORM(A)=   0.10620419D+01
 Iteration Nr.   5
 **********************
 DD1Dir will call FoFMem   1 times, MxPair=        30
 NAB=    15 NAA=     0 NBB=     0.
 DE(Corr)= -0.27719786     E(CORR)=     -77.097444703     Delta=-1.51D-04
 NORM(A)=   0.10620642D+01
 Iteration Nr.   6
 **********************
 DD1Dir will call FoFMem   1 times, MxPair=        30
 NAB=    15 NAA=     0 NBB=     0.
 DE(Corr)= -0.27720307     E(CORR)=     -77.097449914     Delta=-5.21D-06
 NORM(A)=   0.10620645D+01
 Iteration Nr.   7
 **********************
 DD1Dir will call FoFMem   1 times, MxPair=        30
 NAB=    15 NAA=     0 NBB=     0.
 DE(Corr)= -0.27720372     E(CORR)=     -77.097450559     Delta=-6.45D-07
 NORM(A)=   0.10620682D+01
 Iteration Nr.   8
 **********************
 DD1Dir will call FoFMem   1 times, MxPair=        30
 NAB=    15 NAA=     0 NBB=     0.
 DE(Corr)= -0.27720350     E(CORR)=     -77.097450341     Delta= 2.18D-07
 NORM(A)=   0.10620674D+01
 Iteration Nr.   9
 **********************
 DD1Dir will call FoFMem   1 times, MxPair=        30
 NAB=    15 NAA=     0 NBB=     0.
 DE(Corr)= -0.27720374     E(CORR)=     -77.097450583     Delta=-2.43D-07
 NORM(A)=   0.10620676D+01
 Iteration Nr.  10
 **********************
 DD1Dir will call FoFMem   1 times, MxPair=        30
 NAB=    15 NAA=     0 NBB=     0.
 DE(Corr)= -0.27720372     E(CORR)=     -77.097450558     Delta= 2.55D-08
 NORM(A)=   0.10620676D+01
 Iteration Nr.  11
 **********************
 DD1Dir will call FoFMem   1 times, MxPair=        30
 NAB=    15 NAA=     0 NBB=     0.
 DE(Corr)= -0.27720374     E(CORR)=     -77.097450584     Delta=-2.65D-08
 NORM(A)=   0.10620677D+01
 Iteration Nr.  12
 **********************
 DD1Dir will call FoFMem   1 times, MxPair=        30
 NAB=    15 NAA=     0 NBB=     0.
 DE(Corr)= -0.27720375     E(CORR)=     -77.097450595     Delta=-1.03D-08
 NORM(A)=   0.10620677D+01
 Iteration Nr.  13
 **********************
 DD1Dir will call FoFMem   1 times, MxPair=        30
 NAB=    15 NAA=     0 NBB=     0.
 DE(Corr)= -0.27720376     E(CORR)=     -77.097450602     Delta=-6.77D-09
 NORM(A)=   0.10620677D+01
 Dominant configurations:
 ***********************
 Spin Case        I    J    A    B          Value
   ABAB           6    6    8    8      -0.107009D+00
   ABAB           7    7    9    9      -0.107009D+00
 Largest amplitude= 1.07D-01

 Z-AMPLITUDE ITERATIONS

 Iteration Nr.   1
 **********************
 DD1Dir will call FoFMem   1 times, MxPair=        30
 NAB=    15 NAA=     0 NBB=     0.
 DE(Z)  -0.26837178D+00          E(Z)=    -0.77088618617D+02
 NORM(A)=   0.10620688D+01
 Iteration Nr.   2
 **********************
 DD1Dir will call FoFMem   1 times, MxPair=        30
 NAB=    15 NAA=     0 NBB=     0.
 DE(Z)  -0.26837207D+00          E(Z)=    -0.77088618910D+02
 NORM(A)=   0.10620683D+01
 Iteration Nr.   3
 **********************
 DD1Dir will call FoFMem   1 times, MxPair=        30
 NAB=    15 NAA=     0 NBB=     0.
 DE(Z)  -0.26837190D+00          E(Z)=    -0.77088618743D+02
 NORM(A)=   0.10620671D+01
 Iteration Nr.   4
 **********************
 DD1Dir will call FoFMem   1 times, MxPair=        30
 NAB=    15 NAA=     0 NBB=     0.
 DE(Z)  -0.26837163D+00          E(Z)=    -0.77088618473D+02
 NORM(A)=   0.10620689D+01
 Iteration Nr.   5
 **********************
 DD1Dir will call FoFMem   1 times, MxPair=        30
 NAB=    15 NAA=     0 NBB=     0.
 DE(Z)  -0.26837205D+00          E(Z)=    -0.77088618893D+02
 NORM(A)=   0.10570161D+01
 Iteration Nr.   6
 **********************
 DD1Dir will call FoFMem   1 times, MxPair=        30
 NAB=    15 NAA=     0 NBB=     0.
 DE(Z)  -0.26713683D+00          E(Z)=    -0.77087383675D+02
 NORM(A)=   0.10570281D+01
 Iteration Nr.   7
 **********************
 DD1Dir will call FoFMem   1 times, MxPair=        30
 NAB=    15 NAA=     0 NBB=     0.
 DE(Z)  -0.26714000D+00          E(Z)=    -0.77087386844D+02
 NORM(A)=   0.10570330D+01
 Iteration Nr.   8
 **********************
 DD1Dir will call FoFMem   1 times, MxPair=        30
 NAB=    15 NAA=     0 NBB=     0.
 DE(Z)  -0.26714099D+00          E(Z)=    -0.77087387829D+02
 NORM(A)=   0.10570331D+01
 Iteration Nr.   9
 **********************
 DD1Dir will call FoFMem   1 times, MxPair=        30
 NAB=    15 NAA=     0 NBB=     0.
 DE(Z)  -0.26714103D+00          E(Z)=    -0.77087387869D+02
 NORM(A)=   0.10570332D+01
 Iteration Nr.  10
 **********************
 DD1Dir will call FoFMem   1 times, MxPair=        30
 NAB=    15 NAA=     0 NBB=     0.
 DE(Z)  -0.26714103D+00          E(Z)=    -0.77087387867D+02
 NORM(A)=   0.10570332D+01
 Discarding MO integrals.
          IDoAtm=1111
          Differentiating once with respect to electric field.
                with respect to dipole field.
          Differentiating once with respect to nuclear coordinates.
 Keep R1 ints in memory in symmetry-blocked form, NReq=1180334.
          There are     1 degrees of freedom in the 1st order CPHF.  IDoFFX=0 NUNeed=     1.
 LinEq1:  Iter=  0 NonCon=     1 RMS=7.26D-03 Max=6.59D-02 NDo=     1
 AX will form     1 AO Fock derivatives at one time.
 LinEq1:  Iter=  1 NonCon=     1 RMS=1.78D-03 Max=1.91D-02 NDo=     1
 LinEq1:  Iter=  2 NonCon=     1 RMS=3.22D-04 Max=2.41D-03 NDo=     1
 LinEq1:  Iter=  3 NonCon=     1 RMS=3.79D-05 Max=2.81D-04 NDo=     1
 LinEq1:  Iter=  4 NonCon=     1 RMS=2.71D-06 Max=1.69D-05 NDo=     1
 LinEq1:  Iter=  5 NonCon=     1 RMS=1.87D-07 Max=1.76D-06 NDo=     1
 LinEq1:  Iter=  6 NonCon=     1 RMS=9.63D-09 Max=4.37D-08 NDo=     1
 LinEq1:  Iter=  7 NonCon=     1 RMS=5.21D-10 Max=4.65D-09 NDo=     1
 LinEq1:  Iter=  8 NonCon=     0 RMS=4.32D-11 Max=2.40D-10 NDo=     1
 Linear equations converged to 1.000D-10 1.000D-09 after     8 iterations.
 End of Minotr F.D. properties file   721 does not exist.
 End of Minotr F.D. properties file   722 does not exist.
 End of Minotr F.D. properties file   788 does not exist.
 Calling FoFJK, ICntrl=  10002127 FMM=F ISym2X=1 I1Cent= 0 IOpClX= 0 NMat=1 NMatS=1 NMatT=0.
 ***** Axes restored to original set *****
 -------------------------------------------------------------------
 Center     Atomic                   Forces (Hartrees/Bohr)
 Number     Number              X              Y              Z
 -------------------------------------------------------------------
      1        6          -0.000023320   -0.000002606   -0.000011986
      2        6           0.000023311    0.000002605    0.000011981
      3        1           0.000009062    0.000001013    0.000004658
      4        1          -0.000009053   -0.000001012   -0.000004653
 -------------------------------------------------------------------
 Cartesian Forces:  Max     0.000023320 RMS     0.000011538

 GradGradGradGradGradGradGradGradGradGradGradGradGradGradGradGradGradGrad
 Berny optimization.
 Using GEDIIS/GDIIS optimizer.
 FormGI is forming the generalized inverse of G from B-inverse, IUseBI=4.
 Internal  Forces:  Max     0.000016110 RMS     0.000008185
 Search for a local minimum.
 Step number   3 out of a maximum of   20
 All quantities printed in internal units (Hartrees-Bohrs-Radians)
 Mixed Optimization -- En-DIIS/RFO-DIIS
 Swapping is turned off.
 Update second derivatives using D2CorX and points    1    2    3
 DE= -1.20D-06 DEPred=-1.18D-06 R= 1.02D+00
 TightC=F SS=  1.41D+00  RLast= 1.89D-03 DXNew= 5.0454D-01 5.6691D-03
 Trust test= 1.02D+00 RLast= 1.89D-03 DXMaxT set to 3.00D-01
 The second derivative matrix:
                          R1        R2        R3        A1        A2
           R1           1.05969
           R2           0.01737   0.39482
           R3           0.01736   0.00743   0.39480
           A1           0.00000   0.00000   0.00000   0.00653
           A2           0.00000   0.00000   0.00000   0.00000   0.00653
           A3           0.00000   0.00000   0.00000   0.00000   0.00000
           A4           0.00000   0.00000   0.00000   0.00000   0.00000
                          A3        A4
           A3           0.00653
           A4           0.00000   0.00653
 ITU=  1  1  0
     Eigenvalues ---    0.00653   0.00653   0.00653   0.00653   0.38738
     Eigenvalues ---    0.40133   1.06060
 En-DIIS/RFO-DIIS IScMMF=        0 using points:     3    2
 RFO step:  Lambda= 0.00000000D+00.
 DidBck=F Rises=F RFO-DIIS coefs:    0.99881    0.00119
 Iteration  1 RMS(Cart)=  0.00001059 RMS(Int)=  0.00000001
 SLEqS3 Cycle:   121 Max:0.122964E-07 RMS:0.440504E-08 Conv:0.155114E-13
 Iteration  2 RMS(Cart)=  0.00000001 RMS(Int)=  0.00000000
 ClnCor:  largest displacement from symmetrization is 1.15D-08 for atom     1.
 Variable       Old X    -DE/DX   Delta X   Delta X   Delta X     New X
                                 (Linear)    (Quad)   (Total)
    R1        2.29058  -0.00002   0.00000  -0.00002  -0.00002   2.29057
    R2        2.01000   0.00001   0.00000   0.00002   0.00003   2.01003
    R3        2.01000   0.00001   0.00000   0.00002   0.00003   2.01003
    A1        3.14159   0.00000   0.00000   0.00000   0.00000   3.14159
    A2        3.14159   0.00000   0.00000   0.00000   0.00000   3.14159
    A3        3.14159   0.00000   0.00000   0.00000   0.00000   3.14159
    A4        3.14159   0.00000   0.00000   0.00000   0.00000   3.14159
         Item               Value     Threshold  Converged?
 Maximum Force            0.000016     0.000450     YES
 RMS     Force            0.000008     0.000300     YES
 Maximum Displacement     0.000016     0.001800     YES
 RMS     Displacement     0.000011     0.001200     YES
 Predicted change in Energy=-3.968407D-10
 Optimization completed.
    -- Stationary point found.
                           ----------------------------
                           !   Optimized Parameters   !
                           ! (Angstroms and Degrees)  !
 --------------------------                            --------------------------
 ! Name  Definition              Value          Derivative Info.                !
 --------------------------------------------------------------------------------
 ! R1    R(1,2)                  1.2121         -DE/DX =    0.0                 !
 ! R2    R(1,3)                  1.0636         -DE/DX =    0.0                 !
 ! R3    R(2,4)                  1.0636         -DE/DX =    0.0                 !
 ! A1    L(2,1,3,-2,-1)        180.0            -DE/DX =    0.0                 !
 ! A2    L(1,2,4,-2,-1)        180.0            -DE/DX =    0.0                 !
 ! A3    L(2,1,3,-3,-2)        180.0            -DE/DX =    0.0                 !
 ! A4    L(1,2,4,-3,-2)        180.0            -DE/DX =    0.0                 !
 --------------------------------------------------------------------------------
 GradGradGradGradGradGradGradGradGradGradGradGradGradGradGradGradGradGrad

                          Input orientation:                          
 ---------------------------------------------------------------------
 Center     Atomic      Atomic             Coordinates (Angstroms)
 Number     Number       Type             X           Y           Z
 ---------------------------------------------------------------------
      1          6           0        0.815119    0.922384    2.259102
      2          6           0       -0.257660    0.802487    1.707726
      3          1           0        1.756489    1.027595    2.742938
      4          1           0       -1.199030    0.697276    1.223890
 ---------------------------------------------------------------------
                    Distance matrix (angstroms):
                    1          2          3          4
     1  C    0.000000
     2  C    1.212125   0.000000
     3  H    1.063646   2.275772   0.000000
     4  H    2.275772   1.063646   3.339418   0.000000
 Stoichiometry    C2H2
 Framework group  C*V[C*(HCCH)]
 Deg. of freedom     3
 Full point group                 C*V     NOp   4
 Largest Abelian subgroup         C2V     NOp   4
 Largest concise Abelian subgroup C1      NOp   1
                         Standard orientation:                         
 ---------------------------------------------------------------------
 Center     Atomic      Atomic             Coordinates (Angstroms)
 Number     Number       Type             X           Y           Z
 ---------------------------------------------------------------------
      1          6           0        0.000000    0.000000    0.606063
      2          6           0        0.000000    0.000000   -0.606063
      3          1           0        0.000000    0.000000    1.669709
      4          1           0        0.000000    0.000000   -1.669709
 ---------------------------------------------------------------------
 Rotational constants (GHZ):      0.0000000     35.0107314     35.0107314

 **********************************************************************

            Population analysis using the SCF density.

 **********************************************************************

 Orbital symmetries:
       Occupied  (SG) (SG) (SG) (SG) (SG) (PI) (PI)
       Virtual   (PI) (PI) (SG) (SG) (SG) (SG) (PI) (PI) (PI) (PI)
                 (SG) (SG) (SG) (SG) (PI) (PI) (SG) (DLTA) (DLTA)
                 (PI) (PI) (DLTA) (DLTA) (SG) (PI) (PI) (SG) (PI)
                 (PI) (SG) (SG) (SG) (SG)
 The electronic state is 1-SG.
 Alpha  occ. eigenvalues --  -11.24231 -11.23884  -1.01674  -0.76020  -0.66936
 Alpha  occ. eigenvalues --   -0.39826  -0.39826
 Alpha virt. eigenvalues --    0.21226   0.21226   0.24806   0.29575   0.61131
 Alpha virt. eigenvalues --    0.64589   0.74858   0.74858   0.90518   0.90518
 Alpha virt. eigenvalues --    0.93901   1.02941   1.27534   1.52087   1.64774
 Alpha virt. eigenvalues --    1.64774   1.70329   1.81960   1.81960   2.22592
 Alpha virt. eigenvalues --    2.22592   2.24633   2.24633   2.56639   2.69691
 Alpha virt. eigenvalues --    2.69691   3.09363   3.37248   3.37248   3.72881
 Alpha virt. eigenvalues --    4.21312   4.99339   5.78680
          Condensed to atoms (all electrons):
               1          2          3          4
     1  C    4.780521   1.099869   0.361668  -0.004629
     2  C    1.099869   4.780521  -0.004629   0.361668
     3  H    0.361668  -0.004629   0.403853   0.001678
     4  H   -0.004629   0.361668   0.001678   0.403853
 Mulliken charges:
               1
     1  C   -0.237429
     2  C   -0.237429
     3  H    0.237429
     4  H    0.237429
 Sum of Mulliken charges =   0.00000
 Mulliken charges with hydrogens summed into heavy atoms:
               1
     1  C    0.000000
     2  C    0.000000
 Electronic spatial extent (au):  <R**2>=             60.4520
 Charge=              0.0000 electrons
 Dipole moment (field-independent basis, Debye):
    X=              0.0000    Y=              0.0000    Z=              0.0000  Tot=              0.0000
 Quadrupole moment (field-independent basis, Debye-Ang):
   XX=            -13.4324   YY=            -13.4324   ZZ=             -6.4920
   XY=              0.0000   XZ=              0.0000   YZ=              0.0000
 Traceless Quadrupole moment (field-independent basis, Debye-Ang):
   XX=             -2.3135   YY=             -2.3135   ZZ=              4.6270
   XY=              0.0000   XZ=              0.0000   YZ=              0.0000
 Octapole moment (field-independent basis, Debye-Ang**2):
  XXX=              0.0000  YYY=              0.0000  ZZZ=              0.0000  XYY=              0.0000
  XXY=              0.0000  XXZ=              0.0000  XZZ=              0.0000  YZZ=              0.0000
  YYZ=              0.0000  XYZ=              0.0000
 Hexadecapole moment (field-independent basis, Debye-Ang**3):
 XXXX=            -14.2337 YYYY=            -14.2337 ZZZZ=            -35.7660 XXXY=              0.0000
 XXXZ=              0.0000 YYYX=              0.0000 YYYZ=              0.0000 ZZZX=              0.0000
 ZZZY=              0.0000 XXYY=             -4.7446 XXZZ=            -11.8916 YYZZ=            -11.8916
 XXYZ=              0.0000 YYXZ=              0.0000 ZZXY=              0.0000
 N-N= 2.463544009353D+01 E-N=-2.280446168257D+02  KE= 7.658117504397D+01
 Symmetry A1   KE= 7.239031895352D+01
 Symmetry A2   KE= 4.784889306547D-33
 Symmetry B1   KE= 2.095428045225D+00
 Symmetry B2   KE= 2.095428045225D+00
 1\1\GINC-N0292\FOpt\RCCSD-FC\6-31G(d,p)\C2H2\TAIYUPAN\23-Feb-2017\0\\#
 n CCSD/6-31G(d,p) Opt\\CH_CCSD/6-31G(d)\\0,1\C,0.8151193156,0.92238439
 46,2.2591022061\C,-0.2576604279,0.8024869096,1.7077257936\H,1.75648922
 84,1.0275950734,2.7429379315\H,-1.1990303664,0.697276228,1.2238900551\
 \Version=ES64L-G09RevE.01\State=1-SG\HF=-76.8202468\MP2=-77.0815887\MP
 3=-77.0916259\MP4D=-77.0989272\MP4DQ=-77.0930174\MP4SDQ=-77.0967359\CC
 SD=-77.0974506\RMSD=1.547e-09\RMSF=1.154e-05\Dipole=0.,0.,0.\PG=C*V [C
 *(H1C1C1H1)]\\@


 THE MORE ACCURATE THE CALCULATIONS BECOME, THE MORE THE CONCEPTS
 TEND TO VANISH INTO THIN AIR.
     -- R.S. MULLIKEN, J.C.P. 43,S2(1965)
 Job cpu time:       0 days  0 hours  2 minutes 20.7 seconds.
 File lengths (MBytes):  RWF=     36 Int=      0 D2E=      0 Chk=      1 Scr=      1
 Normal termination of Gaussian 09 at Thu Feb 23 18:19:13 2017.
