 Entering Gaussian System, Link 0=g09
 Input=HH_CCSD_6Gdp.com
 Output=HH_CCSD_6Gdp.log
 Initial command:
 /sw/contrib/gaussian/g09/E01/g09/l1.exe "/scr/Gau-11166.inp" -scrdir="/scr/"
 Entering Link 1 = /sw/contrib/gaussian/g09/E01/g09/l1.exe PID=     11167.
  
 Copyright (c) 1988,1990,1992,1993,1995,1998,2003,2009,2015,
            Gaussian, Inc.  All Rights Reserved.
  
 This is part of the Gaussian(R) 09 program.  It is based on
 the Gaussian(R) 03 system (copyright 2003, Gaussian, Inc.),
 the Gaussian(R) 98 system (copyright 1998, Gaussian, Inc.),
 the Gaussian(R) 94 system (copyright 1995, Gaussian, Inc.),
 the Gaussian 92(TM) system (copyright 1992, Gaussian, Inc.),
 the Gaussian 90(TM) system (copyright 1990, Gaussian, Inc.),
 the Gaussian 88(TM) system (copyright 1988, Gaussian, Inc.),
 the Gaussian 86(TM) system (copyright 1986, Carnegie Mellon
 University), and the Gaussian 82(TM) system (copyright 1983,
 Carnegie Mellon University). Gaussian is a federally registered
 trademark of Gaussian, Inc.
  
 This software contains proprietary and confidential information,
 including trade secrets, belonging to Gaussian, Inc.
  
 This software is provided under written license and may be
 used, copied, transmitted, or stored only in accord with that
 written license.
  
 The following legend is applicable only to US Government
 contracts under FAR:
  
                    RESTRICTED RIGHTS LEGEND
  
 Use, reproduction and disclosure by the US Government is
 subject to restrictions as set forth in subparagraphs (a)
 and (c) of the Commercial Computer Software - Restricted
 Rights clause in FAR 52.227-19.
  
 Gaussian, Inc.
 340 Quinnipiac St., Bldg. 40, Wallingford CT 06492
  
  
 ---------------------------------------------------------------
 Warning -- This program may not be used in any manner that
 competes with the business of Gaussian, Inc. or will provide
 assistance to any competitor of Gaussian, Inc.  The licensee
 of this program is prohibited from giving any competitor of
 Gaussian, Inc. access to this program.  By using this program,
 the user acknowledges that Gaussian, Inc. is engaged in the
 business of creating and licensing software in the field of
 computational chemistry and represents and warrants to the
 licensee that it is not a competitor of Gaussian, Inc. and that
 it will not use this program in any manner prohibited above.
 ---------------------------------------------------------------
  

 Cite this work as:
 Gaussian 09, Revision E.01,
 M. J. Frisch, G. W. Trucks, H. B. Schlegel, G. E. Scuseria, 
 M. A. Robb, J. R. Cheeseman, G. Scalmani, V. Barone, B. Mennucci, 
 G. A. Petersson, H. Nakatsuji, M. Caricato, X. Li, H. P. Hratchian, 
 A. F. Izmaylov, J. Bloino, G. Zheng, J. L. Sonnenberg, M. Hada, 
 M. Ehara, K. Toyota, R. Fukuda, J. Hasegawa, M. Ishida, T. Nakajima, 
 Y. Honda, O. Kitao, H. Nakai, T. Vreven, J. A. Montgomery, Jr., 
 J. E. Peralta, F. Ogliaro, M. Bearpark, J. J. Heyd, E. Brothers, 
 K. N. Kudin, V. N. Staroverov, T. Keith, R. Kobayashi, J. Normand, 
 K. Raghavachari, A. Rendell, J. C. Burant, S. S. Iyengar, J. Tomasi, 
 M. Cossi, N. Rega, J. M. Millam, M. Klene, J. E. Knox, J. B. Cross, 
 V. Bakken, C. Adamo, J. Jaramillo, R. Gomperts, R. E. Stratmann, 
 O. Yazyev, A. J. Austin, R. Cammi, C. Pomelli, J. W. Ochterski, 
 R. L. Martin, K. Morokuma, V. G. Zakrzewski, G. A. Voth, 
 P. Salvador, J. J. Dannenberg, S. Dapprich, A. D. Daniels, 
 O. Farkas, J. B. Foresman, J. V. Ortiz, J. Cioslowski, 
 and D. J. Fox, Gaussian, Inc., Wallingford CT, 2013.
 
 ******************************************
 Gaussian 09:  ES64L-G09RevE.01 30-Nov-2015
                24-Feb-2017 
 ******************************************
 %NProcShared=8
 Will use up to    8 processors via shared memory.
 ----------------------
 #n CCSD/6-31G(d,p) Opt
 ----------------------
 1/18=20,19=15,38=1/1,3;
 2/9=110,12=2,17=6,18=5,40=1/2;
 3/5=1,6=6,7=101,11=9,16=1,25=1,30=1,71=1/1,2,3;
 4//1;
 5/5=2,38=5/2;
 8/6=4,9=120000,10=2/1,4;
 9/5=7,15=1/13;
 11/28=-8,29=200,42=3/11;
 10/5=6/2;
 6/7=2,8=2,9=2,10=2/1;
 7/12=7/1,2,3,16;
 1/18=20,19=15/3(2);
 2/9=110/2;
 99//99;
 2/9=110/2;
 3/5=1,6=6,7=101,11=9,16=1,25=1,30=1,71=1/1,2,3;
 4/5=5,16=3,69=1/1;
 5/5=2,38=5/2;
 8/6=4,9=120000,10=2/1,4;
 9/5=7,15=1/13;
 11/28=-8,29=200,42=3/11;
 10/5=6/2;
 7/12=7/1,2,3,16;
 1/18=20,19=15/3(-9);
 2/9=110/2;
 6/7=2,8=2,9=2,10=2/1;
 99//99;
 -----
 Title
 -----
 Symbolic Z-matrix:
 Charge =  0 Multiplicity = 1
 H                    -0.10776  -1.95391   1.03402 
 H                    -0.62202  -2.68857   1.67104 
 
 Add virtual bond connecting atoms H2         and H1         Dist= 2.08D+00.

 GradGradGradGradGradGradGradGradGradGradGradGradGradGradGradGradGradGrad
 Berny optimization.
 Initialization pass.
                           ----------------------------
                           !    Initial Parameters    !
                           ! (Angstroms and Degrees)  !
 --------------------------                            --------------------------
 ! Name  Definition              Value          Derivative Info.                !
 --------------------------------------------------------------------------------
 ! R1    R(1,2)                  1.1            estimate D2E/DX2                !
 --------------------------------------------------------------------------------
 Trust Radius=3.00D-01 FncErr=1.00D-07 GrdErr=1.00D-07
 Number of steps in this run=     20 maximum allowed number of steps=    100.
 GradGradGradGradGradGradGradGradGradGradGradGradGradGradGradGradGradGrad

                          Input orientation:                          
 ---------------------------------------------------------------------
 Center     Atomic      Atomic             Coordinates (Angstroms)
 Number     Number       Type             X           Y           Z
 ---------------------------------------------------------------------
      1          1           0       -0.107760   -1.953910    1.034020
      2          1           0       -0.622020   -2.688570    1.671040
 ---------------------------------------------------------------------
 Stoichiometry    H2
 Framework group  D*H[C*(H.H)]
 Deg. of freedom     1
 Full point group                 D*H     NOp   8
 Largest Abelian subgroup         D2H     NOp   8
 Largest concise Abelian subgroup C2      NOp   2
                         Standard orientation:                         
 ---------------------------------------------------------------------
 Center     Atomic      Atomic             Coordinates (Angstroms)
 Number     Number       Type             X           Y           Z
 ---------------------------------------------------------------------
      1          1           0        0.000000    0.000000    0.549996
      2          1           0        0.000000    0.000000   -0.549996
 ---------------------------------------------------------------------
 Rotational constants (GHZ):      0.0000000    828.8629522    828.8629522
 Standard basis: 6-31G(d,p) (6D, 7F)
 There are     3 symmetry adapted cartesian basis functions of AG  symmetry.
 There are     0 symmetry adapted cartesian basis functions of B1G symmetry.
 There are     1 symmetry adapted cartesian basis functions of B2G symmetry.
 There are     1 symmetry adapted cartesian basis functions of B3G symmetry.
 There are     0 symmetry adapted cartesian basis functions of AU  symmetry.
 There are     3 symmetry adapted cartesian basis functions of B1U symmetry.
 There are     1 symmetry adapted cartesian basis functions of B2U symmetry.
 There are     1 symmetry adapted cartesian basis functions of B3U symmetry.
 There are     3 symmetry adapted basis functions of AG  symmetry.
 There are     0 symmetry adapted basis functions of B1G symmetry.
 There are     1 symmetry adapted basis functions of B2G symmetry.
 There are     1 symmetry adapted basis functions of B3G symmetry.
 There are     0 symmetry adapted basis functions of AU  symmetry.
 There are     3 symmetry adapted basis functions of B1U symmetry.
 There are     1 symmetry adapted basis functions of B2U symmetry.
 There are     1 symmetry adapted basis functions of B3U symmetry.
    10 basis functions,    14 primitive gaussians,    10 cartesian basis functions
     1 alpha electrons        1 beta electrons
       nuclear repulsion energy         0.4810735405 Hartrees.
 NAtoms=    2 NActive=    2 NUniq=    1 SFac= 4.00D+00 NAtFMM=   60 NAOKFM=F Big=F
 Integral buffers will be    131072 words long.
 Raffenetti 1 integral format.
 Two-electron integral symmetry is turned on.
 One-electron integrals computed using PRISM.
 NBasis=    10 RedAO= T EigKep=  2.25D-01  NBF=     3     0     1     1     0     3     1     1
 NBsUse=    10 1.00D-06 EigRej= -1.00D+00 NBFU=     3     0     1     1     0     3     1     1
 ExpMin= 1.61D-01 ExpMax= 1.87D+01 ExpMxC= 1.87D+01 IAcc=1 IRadAn=         1 AccDes= 0.00D+00
 Harris functional with IExCor=  205 and IRadAn=       1 diagonalized for initial guess.
 HarFok:  IExCor=  205 AccDes= 0.00D+00 IRadAn=         1 IDoV= 1 UseB2=F ITyADJ=14
 ICtDFT=  3500011 ScaDFX=  1.000000  1.000000  1.000000  1.000000
 FoFCou: FMM=F IPFlag=           0 FMFlag=      100000 FMFlg1=           0
         NFxFlg=           0 DoJE=T BraDBF=F KetDBF=T FulRan=T
         wScrn=  0.000000 ICntrl=     500 IOpCl=  0 I1Cent=   200000004 NGrid=           0
         NMat0=    1 NMatS0=      1 NMatT0=    0 NMatD0=    1 NMtDS0=    0 NMtDT0=    0
 Petite list used in FoFCou.
 Initial guess orbital symmetries:
       Occupied  (SGG)
       Virtual   (SGU) (SGG) (SGU) (SGG) (PIU) (PIU) (PIG) (PIG)
                 (SGU)
 The electronic state of the initial guess is 1-SGG.
 Keep R1 ints in memory in symmetry-blocked form, NReq=824345.
 Requested convergence on RMS density matrix=1.00D-08 within 128 cycles.
 Requested convergence on MAX density matrix=1.00D-06.
 Requested convergence on             energy=1.00D-06.
 No special actions if energy rises.
 SCF Done:  E(RHF) =  -1.07994559235     A.U. after    5 cycles
            NFock=  5  Conv=0.24D-12     -V/T= 2.2324
 Range of M.O.s used for correlation:     1    10
 NBasis=    10 NAE=     1 NBE=     1 NFC=     0 NFV=     0
 NROrb=     10 NOA=     1 NOB=     1 NVA=     9 NVB=     9
 Semi-Direct transformation.
 ModeAB=           4 MOrb=             1 LenV=      33446479
 LASXX=           69 LTotXX=          69 LenRXX=         172
 LTotAB=         103 MaxLAS=         360 LenRXY=           0
 NonZer=         241 LenScr=      785920 LnRSAI=         360
 LnScr1=      785920 LExtra=           0 Total=      1572372
 MaxDsk=          -1 SrtSym=           T ITran=            4
 JobTyp=0 Pass  1:  I=   1 to   1.
 (rs|ai) integrals will be sorted in core.
 Spin components of T(2) and E(2):
     alpha-alpha T2 =       0.0000000000D+00 E2=      0.0000000000D+00
     alpha-beta  T2 =       0.1303188216D-01 E2=     -0.2798831089D-01
     beta-beta   T2 =       0.0000000000D+00 E2=      0.0000000000D+00
 ANorm=    0.1006494850D+01
 E2 =    -0.2798831089D-01 EUMP2 =    -0.11079339032388D+01
 Keep R2 and R3 ints in memory in symmetry-blocked form, NReq=803446.
 Iterations=  50 Convergence= 0.100D-07
 Iteration Nr.   1
 **********************
 DD1Dir will call FoFMem   1 times, MxPair=         2
 NAB=     1 NAA=     0 NBB=     0.
 MP4(R+Q)=  0.36474037D-03
 E3=       -0.71317085D-02        EUMP3=      -0.11150656118D+01
 E4(DQ)=   -0.24655006D-02        UMP4(DQ)=   -0.11175311124D+01
 E4(SDQ)=  -0.27965296D-02        UMP4(SDQ)=  -0.11178621413D+01
 DE(Corr)= -0.34747421E-01 E(Corr)=     -1.1146930135    
 NORM(A)=   0.10135876D+01
 Iteration Nr.   2
 **********************
 DD1Dir will call FoFMem   1 times, MxPair=         2
 NAB=     1 NAA=     0 NBB=     0.
 DE(Corr)= -0.38437601E-01 E(CORR)=     -1.1183831934     Delta=-3.69D-03
 NORM(A)=   0.10173209D+01
 Iteration Nr.   3
 **********************
 DD1Dir will call FoFMem   1 times, MxPair=         2
 NAB=     1 NAA=     0 NBB=     0.
 DE(Corr)= -0.39910324E-01 E(CORR)=     -1.1198559163     Delta=-1.47D-03
 NORM(A)=   0.10175215D+01
 Iteration Nr.   4
 **********************
 DD1Dir will call FoFMem   1 times, MxPair=         2
 NAB=     1 NAA=     0 NBB=     0.
 DE(Corr)= -0.39974024E-01 E(CORR)=     -1.1199196164     Delta=-6.37D-05
 NORM(A)=   0.10175381D+01
 Iteration Nr.   5
 **********************
 DD1Dir will call FoFMem   1 times, MxPair=         2
 NAB=     1 NAA=     0 NBB=     0.
 DE(Corr)= -0.39978270E-01 E(CORR)=     -1.1199238619     Delta=-4.25D-06
 NORM(A)=   0.10175368D+01
 Iteration Nr.   6
 **********************
 DD1Dir will call FoFMem   1 times, MxPair=         2
 NAB=     1 NAA=     0 NBB=     0.
 DE(Corr)= -0.39977554E-01 E(CORR)=     -1.1199231462     Delta= 7.16D-07
 NORM(A)=   0.10175371D+01
 Iteration Nr.   7
 **********************
 DD1Dir will call FoFMem   1 times, MxPair=         2
 NAB=     1 NAA=     0 NBB=     0.
 DE(Corr)= -0.39977638E-01 E(CORR)=     -1.1199232301     Delta=-8.39D-08
 NORM(A)=   0.10175371D+01
 Iteration Nr.   8
 **********************
 DD1Dir will call FoFMem   1 times, MxPair=         2
 NAB=     1 NAA=     0 NBB=     0.
 DE(Corr)= -0.39977641E-01 E(CORR)=     -1.1199232334     Delta=-3.32D-09
 NORM(A)=   0.10175371D+01
 Dominant configurations:
 ***********************
 Spin Case        I    J    A    B          Value
   ABAB           1    1    2    2      -0.154387D+00
 Largest amplitude= 1.54D-01

 Z-AMPLITUDE ITERATIONS

 Iteration Nr.   1
 **********************
 DD1Dir will call FoFMem   1 times, MxPair=         2
 NAB=     1 NAA=     0 NBB=     0.
 DE(Z)  -0.38977326D-01          E(Z)=    -0.11189229183D+01
 NORM(A)=   0.10175374D+01
 Iteration Nr.   2
 **********************
 DD1Dir will call FoFMem   1 times, MxPair=         2
 NAB=     1 NAA=     0 NBB=     0.
 DE(Z)  -0.38977401D-01          E(Z)=    -0.11189229930D+01
 NORM(A)=   0.10175399D+01
 Iteration Nr.   3
 **********************
 DD1Dir will call FoFMem   1 times, MxPair=         2
 NAB=     1 NAA=     0 NBB=     0.
 DE(Z)  -0.38978201D-01          E(Z)=    -0.11189237936D+01
 NORM(A)=   0.10175512D+01
 Iteration Nr.   4
 **********************
 DD1Dir will call FoFMem   1 times, MxPair=         2
 NAB=     1 NAA=     0 NBB=     0.
 DE(Z)  -0.38981798D-01          E(Z)=    -0.11189273906D+01
 NORM(A)=   0.10175943D+01
 Iteration Nr.   5
 **********************
 DD1Dir will call FoFMem   1 times, MxPair=         2
 NAB=     1 NAA=     0 NBB=     0.
 DE(Z)  -0.38995541D-01          E(Z)=    -0.11189411334D+01
 NORM(A)=   0.10163483D+01
 Iteration Nr.   6
 **********************
 DD1Dir will call FoFMem   1 times, MxPair=         2
 NAB=     1 NAA=     0 NBB=     0.
 DE(Z)  -0.38591435D-01          E(Z)=    -0.11185370275D+01
 NORM(A)=   0.10163483D+01
 Iteration Nr.   7
 **********************
 DD1Dir will call FoFMem   1 times, MxPair=         2
 NAB=     1 NAA=     0 NBB=     0.
 DE(Z)  -0.38591432D-01          E(Z)=    -0.11185370247D+01
 NORM(A)=   0.10163483D+01
 Discarding MO integrals.
          IDoAtm=11
          Differentiating once with respect to electric field.
                with respect to dipole field.
          Differentiating once with respect to nuclear coordinates.
 Keep R1 ints in memory in symmetry-blocked form, NReq=805380.
          There are     1 degrees of freedom in the 1st order CPHF.  IDoFFX=0 NUNeed=     1.
 LinEq1:  Iter=  0 NonCon=     1 RMS=1.86D-02 Max=4.88D-02 NDo=     1
 AX will form     1 AO Fock derivatives at one time.
 LinEq1:  Iter=  1 NonCon=     1 RMS=1.09D-05 Max=2.85D-05 NDo=     1
 LinEq1:  Iter=  2 NonCon=     0 RMS=4.70D-20 Max=9.92D-20 NDo=     1
 Linear equations converged to 1.000D-10 1.000D-09 after     2 iterations.
 End of Minotr F.D. properties file   721 does not exist.
 End of Minotr F.D. properties file   722 does not exist.
 End of Minotr F.D. properties file   788 does not exist.

 **********************************************************************

            Population analysis using the SCF density.

 **********************************************************************

 Orbital symmetries:
       Occupied  (SGG)
       Virtual   (SGU) (SGG) (SGU) (PIU) (PIU) (SGG) (PIG) (PIG)
                 (SGU)
 The electronic state is 1-SGG.
 Alpha  occ. eigenvalues --   -0.50387
 Alpha virt. eigenvalues --    0.14531   0.92083   1.09833   2.07070   2.07070
 Alpha virt. eigenvalues --    2.08015   2.56637   2.56637   3.48732
          Condensed to atoms (all electrons):
               1          2
     1  H    0.645917   0.354083
     2  H    0.354083   0.645917
 Mulliken charges:
               1
     1  H    0.000000
     2  H    0.000000
 Sum of Mulliken charges =   0.00000
 Mulliken charges with hydrogens summed into heavy atoms:
               1
 Electronic spatial extent (au):  <R**2>=              7.0058
 Charge=              0.0000 electrons
 Dipole moment (field-independent basis, Debye):
    X=              0.0000    Y=              0.0000    Z=              0.0000  Tot=              0.0000
 Quadrupole moment (field-independent basis, Debye-Ang):
   XX=             -2.5084   YY=             -2.5084   ZZ=             -1.5003
   XY=              0.0000   XZ=              0.0000   YZ=              0.0000
 Traceless Quadrupole moment (field-independent basis, Debye-Ang):
   XX=             -0.3360   YY=             -0.3360   ZZ=              0.6720
   XY=              0.0000   XZ=              0.0000   YZ=              0.0000
 Octapole moment (field-independent basis, Debye-Ang**2):
  XXX=              0.0000  YYY=              0.0000  ZZZ=              0.0000  XYY=              0.0000
  XXY=              0.0000  XXZ=              0.0000  XZZ=              0.0000  YZZ=              0.0000
  YYZ=              0.0000  XYZ=              0.0000
 Hexadecapole moment (field-independent basis, Debye-Ang**3):
 XXXX=             -2.6287 YYYY=             -2.6287 ZZZZ=             -5.0943 XXXY=              0.0000
 XXXZ=              0.0000 YYYX=              0.0000 YYYZ=              0.0000 ZZZX=              0.0000
 ZZZY=              0.0000 XXYY=             -0.8762 XXZZ=             -1.3493 YYZZ=             -1.3493
 XXYZ=              0.0000 YYXZ=              0.0000 ZZXY=              0.0000
 N-N= 4.810735405348D-01 E-N=-2.990590386615D+00  KE= 8.762875452796D-01
 Symmetry AG   KE= 8.762875452796D-01
 Symmetry B1G  KE= 0.000000000000D+00
 Symmetry B2G  KE= 1.161271533698D-33
 Symmetry B3G  KE= 2.639049938163D-33
 Symmetry AU   KE= 0.000000000000D+00
 Symmetry B1U  KE= 3.269642110316D-33
 Symmetry B2U  KE= 2.116721927950D-34
 Symmetry B3U  KE= 2.077163024400D-34
 Calling FoFJK, ICntrl=  10002127 FMM=F ISym2X=1 I1Cent= 0 IOpClX= 0 NMat=1 NMatS=1 NMatT=0.
 ***** Axes restored to original set *****
 -------------------------------------------------------------------
 Center     Atomic                   Forces (Hartrees/Bohr)
 Number     Number              X              Y              Z
 -------------------------------------------------------------------
      1        1          -0.042979648   -0.061399736    0.053239403
      2        1           0.042979648    0.061399736   -0.053239403
 -------------------------------------------------------------------
 Cartesian Forces:  Max     0.061399736 RMS     0.053077339

 GradGradGradGradGradGradGradGradGradGradGradGradGradGradGradGradGradGrad
 Berny optimization.
 FormGI is forming the generalized inverse of G from B-inverse, IUseBI=4.
 Internal  Forces:  Max     0.091932648 RMS     0.091932648
 Search for a local minimum.
 Step number   1 out of a maximum of   20
 All quantities printed in internal units (Hartrees-Bohrs-Radians)
 Mixed Optimization -- RFO/linear search
 Second derivative matrix not updated -- first step.
 The second derivative matrix:
                          R1
           R1           0.13838
 ITU=  0
     Eigenvalues ---    0.13838
 RFO step:  Lambda=-4.58699469D-02 EMin= 1.38381667D-01
 Linear search not attempted -- first point.
 Maximum step size (   0.300) exceeded in Quadratic search.
    -- Step size scaled by   0.601
 Iteration  1 RMS(Cart)=  0.14142136 RMS(Int)=  0.10000000
 Iteration  2 RMS(Cart)=  0.07071068 RMS(Int)=  0.00000000
 Iteration  3 RMS(Cart)=  0.00000000 RMS(Int)=  0.00000000
 ClnCor:  largest displacement from symmetrization is 8.88D-16 for atom     2.
 Variable       Old X    -DE/DX   Delta X   Delta X   Delta X     New X
                                 (Linear)    (Quad)   (Total)
    R1        2.07868  -0.09193   0.00000  -0.30000  -0.30000   1.77868
         Item               Value     Threshold  Converged?
 Maximum Force            0.091933     0.000450     NO 
 RMS     Force            0.091933     0.000300     NO 
 Maximum Displacement     0.100182     0.001800     NO 
 RMS     Displacement     0.212132     0.001200     NO 
 Predicted change in Energy=-2.135262D-02
 GradGradGradGradGradGradGradGradGradGradGradGradGradGradGradGradGradGrad

                          Input orientation:                          
 ---------------------------------------------------------------------
 Center     Atomic      Atomic             Coordinates (Angstroms)
 Number     Number       Type             X           Y           Z
 ---------------------------------------------------------------------
      1          1           0       -0.144870   -2.006924    1.079988
      2          1           0       -0.584910   -2.635556    1.625072
 ---------------------------------------------------------------------
 Stoichiometry    H2
 Framework group  D*H[C*(H.H)]
 Deg. of freedom     1
 Full point group                 D*H     NOp   8
 Largest Abelian subgroup         D2H     NOp   8
 Largest concise Abelian subgroup C2      NOp   2
                         Standard orientation:                         
 ---------------------------------------------------------------------
 Center     Atomic      Atomic             Coordinates (Angstroms)
 Number     Number       Type             X           Y           Z
 ---------------------------------------------------------------------
      1          1           0        0.000000    0.000000    0.470620
      2          1           0        0.000000    0.000000   -0.470620
 ---------------------------------------------------------------------
 Rotational constants (GHZ):      0.0000000   1132.0407467   1132.0407467
 Standard basis: 6-31G(d,p) (6D, 7F)
 There are     3 symmetry adapted cartesian basis functions of AG  symmetry.
 There are     0 symmetry adapted cartesian basis functions of B1G symmetry.
 There are     1 symmetry adapted cartesian basis functions of B2G symmetry.
 There are     1 symmetry adapted cartesian basis functions of B3G symmetry.
 There are     0 symmetry adapted cartesian basis functions of AU  symmetry.
 There are     3 symmetry adapted cartesian basis functions of B1U symmetry.
 There are     1 symmetry adapted cartesian basis functions of B2U symmetry.
 There are     1 symmetry adapted cartesian basis functions of B3U symmetry.
 There are     3 symmetry adapted basis functions of AG  symmetry.
 There are     0 symmetry adapted basis functions of B1G symmetry.
 There are     1 symmetry adapted basis functions of B2G symmetry.
 There are     1 symmetry adapted basis functions of B3G symmetry.
 There are     0 symmetry adapted basis functions of AU  symmetry.
 There are     3 symmetry adapted basis functions of B1U symmetry.
 There are     1 symmetry adapted basis functions of B2U symmetry.
 There are     1 symmetry adapted basis functions of B3U symmetry.
    10 basis functions,    14 primitive gaussians,    10 cartesian basis functions
     1 alpha electrons        1 beta electrons
       nuclear repulsion energy         0.5622133273 Hartrees.
 NAtoms=    2 NActive=    2 NUniq=    1 SFac= 4.00D+00 NAtFMM=   60 NAOKFM=F Big=F
 Integral buffers will be    131072 words long.
 Raffenetti 1 integral format.
 Two-electron integral symmetry is turned on.
 One-electron integrals computed using PRISM.
 NBasis=    10 RedAO= T EigKep=  1.88D-01  NBF=     3     0     1     1     0     3     1     1
 NBsUse=    10 1.00D-06 EigRej= -1.00D+00 NBFU=     3     0     1     1     0     3     1     1
 Initial guess from the checkpoint file:  "/scr/Gau-11167.chk"
 B after Tr=     0.000000    0.000000    0.000000
         Rot=    1.000000    0.000000    0.000000    0.000000 Ang=   0.00 deg.
 Initial guess orbital symmetries:
       Occupied  (SGG)
       Virtual   (SGG) (SGG) (PIG) (PIG) (SGU) (SGU) (SGU) (PIU)
                 (PIU)
 ExpMin= 1.61D-01 ExpMax= 1.87D+01 ExpMxC= 1.87D+01 IAcc=1 IRadAn=         1 AccDes= 0.00D+00
 Harris functional with IExCor=  205 and IRadAn=       1 diagonalized for initial guess.
 HarFok:  IExCor=  205 AccDes= 0.00D+00 IRadAn=         1 IDoV= 1 UseB2=F ITyADJ=14
 ICtDFT=  3500011 ScaDFX=  1.000000  1.000000  1.000000  1.000000
 FoFCou: FMM=F IPFlag=           0 FMFlag=      100000 FMFlg1=           0
         NFxFlg=           0 DoJE=T BraDBF=F KetDBF=T FulRan=T
         wScrn=  0.000000 ICntrl=     500 IOpCl=  0 I1Cent=   200000004 NGrid=           0
         NMat0=    1 NMatS0=      1 NMatT0=    0 NMatD0=    1 NMtDS0=    0 NMtDT0=    0
 Petite list used in FoFCou.
 Keep R1 ints in memory in symmetry-blocked form, NReq=824345.
 Requested convergence on RMS density matrix=1.00D-08 within 128 cycles.
 Requested convergence on MAX density matrix=1.00D-06.
 Requested convergence on             energy=1.00D-06.
 No special actions if energy rises.
 SCF Done:  E(RHF) =  -1.10992689419     A.U. after    5 cycles
            NFock=  5  Conv=0.77D-10     -V/T= 2.1510
 Range of M.O.s used for correlation:     1    10
 NBasis=    10 NAE=     1 NBE=     1 NFC=     0 NFV=     0
 NROrb=     10 NOA=     1 NOB=     1 NVA=     9 NVB=     9
 Semi-Direct transformation.
 ModeAB=           4 MOrb=             1 LenV=      33446479
 LASXX=           69 LTotXX=          69 LenRXX=         172
 LTotAB=         103 MaxLAS=         360 LenRXY=           0
 NonZer=         241 LenScr=      785920 LnRSAI=         360
 LnScr1=      785920 LExtra=           0 Total=      1572372
 MaxDsk=          -1 SrtSym=           T ITran=            4
 JobTyp=0 Pass  1:  I=   1 to   1.
 (rs|ai) integrals will be sorted in core.
 Spin components of T(2) and E(2):
     alpha-alpha T2 =       0.0000000000D+00 E2=      0.0000000000D+00
     alpha-beta  T2 =       0.1040848355D-01 E2=     -0.2694334526D-01
     beta-beta   T2 =       0.0000000000D+00 E2=      0.0000000000D+00
 ANorm=    0.1005190770D+01
 E2 =    -0.2694334526D-01 EUMP2 =    -0.11368702394510D+01
 Keep R2 and R3 ints in memory in symmetry-blocked form, NReq=803446.
 Iterations=  50 Convergence= 0.100D-07
 Iteration Nr.   1
 **********************
 DD1Dir will call FoFMem   1 times, MxPair=         2
 NAB=     1 NAA=     0 NBB=     0.
 MP4(R+Q)=  0.28043937D-03
 E3=       -0.61941902D-02        EUMP3=      -0.11430644297D+01
 E4(DQ)=   -0.18091062D-02        UMP4(DQ)=   -0.11448735359D+01
 E4(SDQ)=  -0.20218202D-02        UMP4(SDQ)=  -0.11450862499D+01
 DE(Corr)= -0.32851678E-01 E(Corr)=     -1.1427785720    
 NORM(A)=   0.10098478D+01
 Iteration Nr.   2
 **********************
 DD1Dir will call FoFMem   1 times, MxPair=         2
 NAB=     1 NAA=     0 NBB=     0.
 DE(Corr)= -0.35489873E-01 E(CORR)=     -1.1454167667     Delta=-2.64D-03
 NORM(A)=   0.10116669D+01
 Iteration Nr.   3
 **********************
 DD1Dir will call FoFMem   1 times, MxPair=         2
 NAB=     1 NAA=     0 NBB=     0.
 DE(Corr)= -0.36318740E-01 E(CORR)=     -1.1462456342     Delta=-8.29D-04
 NORM(A)=   0.10118047D+01
 Iteration Nr.   4
 **********************
 DD1Dir will call FoFMem   1 times, MxPair=         2
 NAB=     1 NAA=     0 NBB=     0.
 DE(Corr)= -0.36368713E-01 E(CORR)=     -1.1462956069     Delta=-5.00D-05
 NORM(A)=   0.10118082D+01
 Iteration Nr.   5
 **********************
 DD1Dir will call FoFMem   1 times, MxPair=         2
 NAB=     1 NAA=     0 NBB=     0.
 DE(Corr)= -0.36368968E-01 E(CORR)=     -1.1462958624     Delta=-2.56D-07
 NORM(A)=   0.10118087D+01
 Iteration Nr.   6
 **********************
 DD1Dir will call FoFMem   1 times, MxPair=         2
 NAB=     1 NAA=     0 NBB=     0.
 DE(Corr)= -0.36369026E-01 E(CORR)=     -1.1462959203     Delta=-5.79D-08
 NORM(A)=   0.10118087D+01
 Iteration Nr.   7
 **********************
 DD1Dir will call FoFMem   1 times, MxPair=         2
 NAB=     1 NAA=     0 NBB=     0.
 DE(Corr)= -0.36369012E-01 E(CORR)=     -1.1462959058     Delta= 1.45D-08
 NORM(A)=   0.10118087D+01
 Iteration Nr.   8
 **********************
 DD1Dir will call FoFMem   1 times, MxPair=         2
 NAB=     1 NAA=     0 NBB=     0.
 DE(Corr)= -0.36369014E-01 E(CORR)=     -1.1462959085     Delta=-2.64D-09
 NORM(A)=   0.10118087D+01
 Dominant configurations:
 ***********************
 Spin Case        I    J    A    B          Value
   ABAB           1    1    2    2      -0.111971D+00
 Largest amplitude= 1.12D-01

 Z-AMPLITUDE ITERATIONS

 Iteration Nr.   1
 **********************
 DD1Dir will call FoFMem   1 times, MxPair=         2
 NAB=     1 NAA=     0 NBB=     0.
 DE(Z)  -0.35725606D-01          E(Z)=    -0.11456525001D+01
 NORM(A)=   0.10118087D+01
 Iteration Nr.   2
 **********************
 DD1Dir will call FoFMem   1 times, MxPair=         2
 NAB=     1 NAA=     0 NBB=     0.
 DE(Z)  -0.35725634D-01          E(Z)=    -0.11456525287D+01
 NORM(A)=   0.10118089D+01
 Iteration Nr.   3
 **********************
 DD1Dir will call FoFMem   1 times, MxPair=         2
 NAB=     1 NAA=     0 NBB=     0.
 DE(Z)  -0.35725710D-01          E(Z)=    -0.11456526045D+01
 NORM(A)=   0.10118091D+01
 Iteration Nr.   4
 **********************
 DD1Dir will call FoFMem   1 times, MxPair=         2
 NAB=     1 NAA=     0 NBB=     0.
 DE(Z)  -0.35725767D-01          E(Z)=    -0.11456526610D+01
 NORM(A)=   0.10118087D+01
 Iteration Nr.   5
 **********************
 DD1Dir will call FoFMem   1 times, MxPair=         2
 NAB=     1 NAA=     0 NBB=     0.
 DE(Z)  -0.35725633D-01          E(Z)=    -0.11456525271D+01
 NORM(A)=   0.10112547D+01
 Iteration Nr.   6
 **********************
 DD1Dir will call FoFMem   1 times, MxPair=         2
 NAB=     1 NAA=     0 NBB=     0.
 DE(Z)  -0.35512912D-01          E(Z)=    -0.11454398063D+01
 NORM(A)=   0.10112545D+01
 Iteration Nr.   7
 **********************
 DD1Dir will call FoFMem   1 times, MxPair=         2
 NAB=     1 NAA=     0 NBB=     0.
 DE(Z)  -0.35512721D-01          E(Z)=    -0.11454396149D+01
 NORM(A)=   0.10112545D+01
 Iteration Nr.   8
 **********************
 DD1Dir will call FoFMem   1 times, MxPair=         2
 NAB=     1 NAA=     0 NBB=     0.
 DE(Z)  -0.35512679D-01          E(Z)=    -0.11454395736D+01
 NORM(A)=   0.10112545D+01
 Iteration Nr.   9
 **********************
 DD1Dir will call FoFMem   1 times, MxPair=         2
 NAB=     1 NAA=     0 NBB=     0.
 DE(Z)  -0.35512680D-01          E(Z)=    -0.11454395739D+01
 NORM(A)=   0.10112545D+01
 Discarding MO integrals.
          IDoAtm=11
          Differentiating once with respect to electric field.
                with respect to dipole field.
          Differentiating once with respect to nuclear coordinates.
 Keep R1 ints in memory in symmetry-blocked form, NReq=805399.
          There are     1 degrees of freedom in the 1st order CPHF.  IDoFFX=0 NUNeed=     1.
 LinEq1:  Iter=  0 NonCon=     1 RMS=1.43D-02 Max=3.81D-02 NDo=     1
 AX will form     1 AO Fock derivatives at one time.
 LinEq1:  Iter=  1 NonCon=     1 RMS=1.02D-05 Max=2.72D-05 NDo=     1
 LinEq1:  Iter=  2 NonCon=     0 RMS=1.90D-19 Max=3.90D-19 NDo=     1
 Linear equations converged to 1.000D-10 1.000D-09 after     2 iterations.
 End of Minotr F.D. properties file   721 does not exist.
 End of Minotr F.D. properties file   722 does not exist.
 End of Minotr F.D. properties file   788 does not exist.
 Calling FoFJK, ICntrl=  10002127 FMM=F ISym2X=1 I1Cent= 0 IOpClX= 0 NMat=1 NMatS=1 NMatT=0.
 ***** Axes restored to original set *****
 -------------------------------------------------------------------
 Center     Atomic                   Forces (Hartrees/Bohr)
 Number     Number              X              Y              Z
 -------------------------------------------------------------------
      1        1          -0.037307015   -0.053295943    0.046212645
      2        1           0.037307015    0.053295943   -0.046212645
 -------------------------------------------------------------------
 Cartesian Forces:  Max     0.053295943 RMS     0.046071971

 GradGradGradGradGradGradGradGradGradGradGradGradGradGradGradGradGradGrad
 Berny optimization.
 Using GEDIIS/GDIIS optimizer.
 Internal  Forces:  Max     0.079798994 RMS     0.079798994
 Search for a local minimum.
 Step number   2 out of a maximum of   20
 All quantities printed in internal units (Hartrees-Bohrs-Radians)
 Mixed Optimization -- RFO/linear search
 Update second derivatives using D2CorX and points    1    2
 DE= -2.64D-02 DEPred=-2.14D-02 R= 1.24D+00
 TightC=F SS=  1.41D+00  RLast= 3.00D-01 DXNew= 5.0454D-01 9.0000D-01
 Trust test= 1.24D+00 RLast= 3.00D-01 DXMaxT set to 5.05D-01
 The second derivative matrix:
                          R1
           R1           0.04045
 ITU=  1  0
 Use linear search instead of GDIIS.
     Eigenvalues ---    0.04045
 RFO step:  Lambda= 0.00000000D+00 EMin= 4.04455117D-02
 Quartic linear search produced a step of  1.32839.
 Iteration  1 RMS(Cart)=  0.14142136 RMS(Int)=  0.19851727
 Iteration  2 RMS(Cart)=  0.14037291 RMS(Int)=  0.00000000
 Iteration  3 RMS(Cart)=  0.00000000 RMS(Int)=  0.00000000
 ClnCor:  largest displacement from symmetrization is 8.88D-16 for atom     2.
 Variable       Old X    -DE/DX   Delta X   Delta X   Delta X     New X
                                 (Linear)    (Quad)   (Total)
    R1        1.77868  -0.07980  -0.39852   0.00000  -0.39852   1.38017
         Item               Value     Threshold  Converged?
 Maximum Force            0.079799     0.000450     NO 
 RMS     Force            0.079799     0.000300     NO 
 Maximum Displacement     0.133080     0.001800     NO 
 RMS     Displacement     0.281794     0.001200     NO 
 Predicted change in Energy=-2.858958D-02
 GradGradGradGradGradGradGradGradGradGradGradGradGradGradGradGradGradGrad

                          Input orientation:                          
 ---------------------------------------------------------------------
 Center     Atomic      Atomic             Coordinates (Angstroms)
 Number     Number       Type             X           Y           Z
 ---------------------------------------------------------------------
      1          1           0       -0.194165   -2.077347    1.141052
      2          1           0       -0.535615   -2.565133    1.564008
 ---------------------------------------------------------------------
 Stoichiometry    H2
 Framework group  D*H[C*(H.H)]
 Deg. of freedom     1
 Full point group                 D*H     NOp   8
 Largest Abelian subgroup         D2H     NOp   8
 Largest concise Abelian subgroup C2      NOp   2
                         Standard orientation:                         
 ---------------------------------------------------------------------
 Center     Atomic      Atomic             Coordinates (Angstroms)
 Number     Number       Type             X           Y           Z
 ---------------------------------------------------------------------
      1          1           0        0.000000    0.000000    0.365176
      2          1           0        0.000000    0.000000   -0.365176
 ---------------------------------------------------------------------
 Rotational constants (GHZ):      0.0000000   1880.1673725   1880.1673725
 Standard basis: 6-31G(d,p) (6D, 7F)
 There are     3 symmetry adapted cartesian basis functions of AG  symmetry.
 There are     0 symmetry adapted cartesian basis functions of B1G symmetry.
 There are     1 symmetry adapted cartesian basis functions of B2G symmetry.
 There are     1 symmetry adapted cartesian basis functions of B3G symmetry.
 There are     0 symmetry adapted cartesian basis functions of AU  symmetry.
 There are     3 symmetry adapted cartesian basis functions of B1U symmetry.
 There are     1 symmetry adapted cartesian basis functions of B2U symmetry.
 There are     1 symmetry adapted cartesian basis functions of B3U symmetry.
 There are     3 symmetry adapted basis functions of AG  symmetry.
 There are     0 symmetry adapted basis functions of B1G symmetry.
 There are     1 symmetry adapted basis functions of B2G symmetry.
 There are     1 symmetry adapted basis functions of B3G symmetry.
 There are     0 symmetry adapted basis functions of AU  symmetry.
 There are     3 symmetry adapted basis functions of B1U symmetry.
 There are     1 symmetry adapted basis functions of B2U symmetry.
 There are     1 symmetry adapted basis functions of B3U symmetry.
    10 basis functions,    14 primitive gaussians,    10 cartesian basis functions
     1 alpha electrons        1 beta electrons
       nuclear repulsion energy         0.7245500032 Hartrees.
 NAtoms=    2 NActive=    2 NUniq=    1 SFac= 4.00D+00 NAtFMM=   60 NAOKFM=F Big=F
 Integral buffers will be    131072 words long.
 Raffenetti 1 integral format.
 Two-electron integral symmetry is turned on.
 One-electron integrals computed using PRISM.
 NBasis=    10 RedAO= T EigKep=  1.33D-01  NBF=     3     0     1     1     0     3     1     1
 NBsUse=    10 1.00D-06 EigRej= -1.00D+00 NBFU=     3     0     1     1     0     3     1     1
 Initial guess from the checkpoint file:  "/scr/Gau-11167.chk"
 B after Tr=     0.000000    0.000000    0.000000
         Rot=    1.000000    0.000000    0.000000    0.000000 Ang=   0.00 deg.
 Initial guess orbital symmetries:
       Occupied  (SGG)
       Virtual   (SGG) (SGG) (PIG) (PIG) (SGU) (SGU) (SGU) (PIU)
                 (PIU)
 ExpMin= 1.61D-01 ExpMax= 1.87D+01 ExpMxC= 1.87D+01 IAcc=1 IRadAn=         1 AccDes= 0.00D+00
 Harris functional with IExCor=  205 and IRadAn=       1 diagonalized for initial guess.
 HarFok:  IExCor=  205 AccDes= 0.00D+00 IRadAn=         1 IDoV= 1 UseB2=F ITyADJ=14
 ICtDFT=  3500011 ScaDFX=  1.000000  1.000000  1.000000  1.000000
 FoFCou: FMM=F IPFlag=           0 FMFlag=      100000 FMFlg1=           0
         NFxFlg=           0 DoJE=T BraDBF=F KetDBF=T FulRan=T
         wScrn=  0.000000 ICntrl=     500 IOpCl=  0 I1Cent=   200000004 NGrid=           0
         NMat0=    1 NMatS0=      1 NMatT0=    0 NMatD0=    1 NMtDS0=    0 NMtDT0=    0
 Petite list used in FoFCou.
 Keep R1 ints in memory in symmetry-blocked form, NReq=824359.
 Requested convergence on RMS density matrix=1.00D-08 within 128 cycles.
 Requested convergence on MAX density matrix=1.00D-06.
 Requested convergence on             energy=1.00D-06.
 No special actions if energy rises.
 SCF Done:  E(RHF) =  -1.13132996887     A.U. after    6 cycles
            NFock=  6  Conv=0.51D-13     -V/T= 1.9940
 Range of M.O.s used for correlation:     1    10
 NBasis=    10 NAE=     1 NBE=     1 NFC=     0 NFV=     0
 NROrb=     10 NOA=     1 NOB=     1 NVA=     9 NVB=     9
 Semi-Direct transformation.
 ModeAB=           4 MOrb=             1 LenV=      33446465
 LASXX=           69 LTotXX=          69 LenRXX=         172
 LTotAB=         103 MaxLAS=         360 LenRXY=           0
 NonZer=         241 LenScr=      785920 LnRSAI=         360
 LnScr1=      785920 LExtra=           0 Total=      1572372
 MaxDsk=          -1 SrtSym=           T ITran=            4
 JobTyp=0 Pass  1:  I=   1 to   1.
 (rs|ai) integrals will be sorted in core.
 Spin components of T(2) and E(2):
     alpha-alpha T2 =       0.0000000000D+00 E2=      0.0000000000D+00
     alpha-beta  T2 =       0.8109230697D-02 E2=     -0.2632229505D-01
     beta-beta   T2 =       0.0000000000D+00 E2=      0.0000000000D+00
 ANorm=    0.1004046429D+01
 E2 =    -0.2632229505D-01 EUMP2 =    -0.11576522639247D+01
 Keep R2 and R3 ints in memory in symmetry-blocked form, NReq=803446.
 Iterations=  50 Convergence= 0.100D-07
 Iteration Nr.   1
 **********************
 DD1Dir will call FoFMem   1 times, MxPair=         2
 NAB=     1 NAA=     0 NBB=     0.
 MP4(R+Q)=  0.21345356D-03
 E3=       -0.54916604D-02        EUMP3=      -0.11631439243D+01
 E4(DQ)=   -0.12984270D-02        UMP4(DQ)=   -0.11644423513D+01
 E4(SDQ)=  -0.13968672D-02        UMP4(SDQ)=  -0.11645407915D+01
 DE(Corr)= -0.31597699E-01 E(Corr)=     -1.1629276675    
 NORM(A)=   0.10069319D+01
 Iteration Nr.   2
 **********************
 DD1Dir will call FoFMem   1 times, MxPair=         2
 NAB=     1 NAA=     0 NBB=     0.
 DE(Corr)= -0.33413369E-01 E(CORR)=     -1.1647433377     Delta=-1.82D-03
 NORM(A)=   0.10075565D+01
 Iteration Nr.   3
 **********************
 DD1Dir will call FoFMem   1 times, MxPair=         2
 NAB=     1 NAA=     0 NBB=     0.
 DE(Corr)= -0.33758018E-01 E(CORR)=     -1.1650879871     Delta=-3.45D-04
 NORM(A)=   0.10076106D+01
 Iteration Nr.   4
 **********************
 DD1Dir will call FoFMem   1 times, MxPair=         2
 NAB=     1 NAA=     0 NBB=     0.
 DE(Corr)= -0.33781878E-01 E(CORR)=     -1.1651118467     Delta=-2.39D-05
 NORM(A)=   0.10076102D+01
 Iteration Nr.   5
 **********************
 DD1Dir will call FoFMem   1 times, MxPair=         2
 NAB=     1 NAA=     0 NBB=     0.
 DE(Corr)= -0.33781133E-01 E(CORR)=     -1.1651111014     Delta= 7.45D-07
 NORM(A)=   0.10076106D+01
 Iteration Nr.   6
 **********************
 DD1Dir will call FoFMem   1 times, MxPair=         2
 NAB=     1 NAA=     0 NBB=     0.
 DE(Corr)= -0.33781326E-01 E(CORR)=     -1.1651112944     Delta=-1.93D-07
 NORM(A)=   0.10076105D+01
 Iteration Nr.   7
 **********************
 DD1Dir will call FoFMem   1 times, MxPair=         2
 NAB=     1 NAA=     0 NBB=     0.
 DE(Corr)= -0.33781292E-01 E(CORR)=     -1.1651112607     Delta= 3.37D-08
 NORM(A)=   0.10076105D+01
 Iteration Nr.   8
 **********************
 DD1Dir will call FoFMem   1 times, MxPair=         2
 NAB=     1 NAA=     0 NBB=     0.
 DE(Corr)= -0.33781293E-01 E(CORR)=     -1.1651112614     Delta=-7.23D-10
 NORM(A)=   0.10076105D+01
 Largest amplitude= 6.83D-02

 Z-AMPLITUDE ITERATIONS

 Iteration Nr.   1
 **********************
 DD1Dir will call FoFMem   1 times, MxPair=         2
 NAB=     1 NAA=     0 NBB=     0.
 DE(Z)  -0.33379135D-01          E(Z)=    -0.11647091044D+01
 NORM(A)=   0.10076105D+01
 Iteration Nr.   2
 **********************
 DD1Dir will call FoFMem   1 times, MxPair=         2
 NAB=     1 NAA=     0 NBB=     0.
 DE(Z)  -0.33379128D-01          E(Z)=    -0.11647090964D+01
 NORM(A)=   0.10076105D+01
 Iteration Nr.   3
 **********************
 DD1Dir will call FoFMem   1 times, MxPair=         2
 NAB=     1 NAA=     0 NBB=     0.
 DE(Z)  -0.33379109D-01          E(Z)=    -0.11647090775D+01
 NORM(A)=   0.10076101D+01
 Iteration Nr.   4
 **********************
 DD1Dir will call FoFMem   1 times, MxPair=         2
 NAB=     1 NAA=     0 NBB=     0.
 DE(Z)  -0.33378938D-01          E(Z)=    -0.11647089070D+01
 NORM(A)=   0.10076136D+01
 Iteration Nr.   5
 **********************
 DD1Dir will call FoFMem   1 times, MxPair=         2
 NAB=     1 NAA=     0 NBB=     0.
 DE(Z)  -0.33380559D-01          E(Z)=    -0.11647105277D+01
 NORM(A)=   0.10073755D+01
 Iteration Nr.   6
 **********************
 DD1Dir will call FoFMem   1 times, MxPair=         2
 NAB=     1 NAA=     0 NBB=     0.
 DE(Z)  -0.33267395D-01          E(Z)=    -0.11645973638D+01
 NORM(A)=   0.10073755D+01
 Iteration Nr.   7
 **********************
 DD1Dir will call FoFMem   1 times, MxPair=         2
 NAB=     1 NAA=     0 NBB=     0.
 DE(Z)  -0.33267394D-01          E(Z)=    -0.11645973629D+01
 NORM(A)=   0.10073755D+01
 Discarding MO integrals.
          IDoAtm=11
          Differentiating once with respect to electric field.
                with respect to dipole field.
          Differentiating once with respect to nuclear coordinates.
 Keep R1 ints in memory in symmetry-blocked form, NReq=805399.
          There are     1 degrees of freedom in the 1st order CPHF.  IDoFFX=0 NUNeed=     1.
 LinEq1:  Iter=  0 NonCon=     1 RMS=9.22D-03 Max=2.55D-02 NDo=     1
 AX will form     1 AO Fock derivatives at one time.
 LinEq1:  Iter=  1 NonCon=     1 RMS=1.90D-05 Max=5.26D-05 NDo=     1
 LinEq1:  Iter=  2 NonCon=     0 RMS=5.94D-20 Max=1.28D-19 NDo=     1
 Linear equations converged to 1.000D-10 1.000D-09 after     2 iterations.
 End of Minotr F.D. properties file   721 does not exist.
 End of Minotr F.D. properties file   722 does not exist.
 End of Minotr F.D. properties file   788 does not exist.
 Calling FoFJK, ICntrl=  10002127 FMM=F ISym2X=1 I1Cent= 0 IOpClX= 0 NMat=1 NMatS=1 NMatT=0.
 ***** Axes restored to original set *****
 -------------------------------------------------------------------
 Center     Atomic                   Forces (Hartrees/Bohr)
 Number     Number              X              Y              Z
 -------------------------------------------------------------------
      1        1           0.002843074    0.004061550   -0.003521750
      2        1          -0.002843074   -0.004061550    0.003521750
 -------------------------------------------------------------------
 Cartesian Forces:  Max     0.004061550 RMS     0.003511029

 GradGradGradGradGradGradGradGradGradGradGradGradGradGradGradGradGradGrad
 Berny optimization.
 Using GEDIIS/GDIIS optimizer.
 Internal  Forces:  Max     0.006081281 RMS     0.006081281
 Search for a local minimum.
 Step number   3 out of a maximum of   20
 All quantities printed in internal units (Hartrees-Bohrs-Radians)
 Mixed Optimization -- RFO/linear search
 Update second derivatives using D2CorX and points    2    3
 DE= -1.88D-02 DEPred=-2.86D-02 R= 6.58D-01
 TightC=F SS=  1.41D+00  RLast= 3.99D-01 DXNew= 8.4853D-01 1.1956D+00
 Trust test= 6.58D-01 RLast= 3.99D-01 DXMaxT set to 8.49D-01
 The second derivative matrix:
                          R1
           R1           0.21550
 ITU=  1  1
 Use linear search instead of GDIIS.
     Eigenvalues ---    0.21550
 RFO step:  Lambda= 0.00000000D+00 EMin= 2.15499506D-01
 Quartic linear search produced a step of -0.03989.
 Iteration  1 RMS(Cart)=  0.01123979 RMS(Int)=  0.00000000
 Iteration  2 RMS(Cart)=  0.00000000 RMS(Int)=  0.00000000
 ClnCor:  largest displacement from symmetrization is 8.88D-16 for atom     2.
 Variable       Old X    -DE/DX   Delta X   Delta X   Delta X     New X
                                 (Linear)    (Quad)   (Total)
    R1        1.38017   0.00608   0.01590   0.00000   0.01590   1.39606
         Item               Value     Threshold  Converged?
 Maximum Force            0.006081     0.000450     NO 
 RMS     Force            0.006081     0.000300     NO 
 Maximum Displacement     0.005308     0.001800     NO 
 RMS     Displacement     0.011240     0.001200     NO 
 Predicted change in Energy=-6.944012D-05
 GradGradGradGradGradGradGradGradGradGradGradGradGradGradGradGradGradGrad

                          Input orientation:                          
 ---------------------------------------------------------------------
 Center     Atomic      Atomic             Coordinates (Angstroms)
 Number     Number       Type             X           Y           Z
 ---------------------------------------------------------------------
      1          1           0       -0.192199   -2.074538    1.138616
      2          1           0       -0.537581   -2.567942    1.566444
 ---------------------------------------------------------------------
 Stoichiometry    H2
 Framework group  D*H[C*(H.H)]
 Deg. of freedom     1
 Full point group                 D*H     NOp   8
 Largest Abelian subgroup         D2H     NOp   8
 Largest concise Abelian subgroup C2      NOp   2
                         Standard orientation:                         
 ---------------------------------------------------------------------
 Center     Atomic      Atomic             Coordinates (Angstroms)
 Number     Number       Type             X           Y           Z
 ---------------------------------------------------------------------
      1          1           0        0.000000    0.000000    0.369382
      2          1           0        0.000000    0.000000   -0.369382
 ---------------------------------------------------------------------
 Rotational constants (GHZ):      0.0000000   1837.5962073   1837.5962073
 Standard basis: 6-31G(d,p) (6D, 7F)
 There are     3 symmetry adapted cartesian basis functions of AG  symmetry.
 There are     0 symmetry adapted cartesian basis functions of B1G symmetry.
 There are     1 symmetry adapted cartesian basis functions of B2G symmetry.
 There are     1 symmetry adapted cartesian basis functions of B3G symmetry.
 There are     0 symmetry adapted cartesian basis functions of AU  symmetry.
 There are     3 symmetry adapted cartesian basis functions of B1U symmetry.
 There are     1 symmetry adapted cartesian basis functions of B2U symmetry.
 There are     1 symmetry adapted cartesian basis functions of B3U symmetry.
 There are     3 symmetry adapted basis functions of AG  symmetry.
 There are     0 symmetry adapted basis functions of B1G symmetry.
 There are     1 symmetry adapted basis functions of B2G symmetry.
 There are     1 symmetry adapted basis functions of B3G symmetry.
 There are     0 symmetry adapted basis functions of AU  symmetry.
 There are     3 symmetry adapted basis functions of B1U symmetry.
 There are     1 symmetry adapted basis functions of B2U symmetry.
 There are     1 symmetry adapted basis functions of B3U symmetry.
    10 basis functions,    14 primitive gaussians,    10 cartesian basis functions
     1 alpha electrons        1 beta electrons
       nuclear repulsion energy         0.7163003275 Hartrees.
 NAtoms=    2 NActive=    2 NUniq=    1 SFac= 4.00D+00 NAtFMM=   60 NAOKFM=F Big=F
 Integral buffers will be    131072 words long.
 Raffenetti 1 integral format.
 Two-electron integral symmetry is turned on.
 One-electron integrals computed using PRISM.
 NBasis=    10 RedAO= T EigKep=  1.36D-01  NBF=     3     0     1     1     0     3     1     1
 NBsUse=    10 1.00D-06 EigRej= -1.00D+00 NBFU=     3     0     1     1     0     3     1     1
 Initial guess from the checkpoint file:  "/scr/Gau-11167.chk"
 B after Tr=     0.000000    0.000000    0.000000
         Rot=    1.000000    0.000000    0.000000    0.000000 Ang=   0.00 deg.
 Initial guess orbital symmetries:
       Occupied  (SGG)
       Virtual   (SGG) (SGG) (PIG) (PIG) (SGU) (SGU) (SGU) (PIU)
                 (PIU)
 Keep R1 ints in memory in symmetry-blocked form, NReq=824359.
 Requested convergence on RMS density matrix=1.00D-08 within 128 cycles.
 Requested convergence on MAX density matrix=1.00D-06.
 Requested convergence on             energy=1.00D-06.
 No special actions if energy rises.
 SCF Done:  E(RHF) =  -1.13130589956     A.U. after    4 cycles
            NFock=  4  Conv=0.73D-09     -V/T= 2.0015
 Range of M.O.s used for correlation:     1    10
 NBasis=    10 NAE=     1 NBE=     1 NFC=     0 NFV=     0
 NROrb=     10 NOA=     1 NOB=     1 NVA=     9 NVB=     9
 Semi-Direct transformation.
 ModeAB=           4 MOrb=             1 LenV=      33446465
 LASXX=           69 LTotXX=          69 LenRXX=         172
 LTotAB=         103 MaxLAS=         360 LenRXY=           0
 NonZer=         241 LenScr=      785920 LnRSAI=         360
 LnScr1=      785920 LExtra=           0 Total=      1572372
 MaxDsk=          -1 SrtSym=           T ITran=            4
 JobTyp=0 Pass  1:  I=   1 to   1.
 (rs|ai) integrals will be sorted in core.
 Spin components of T(2) and E(2):
     alpha-alpha T2 =       0.0000000000D+00 E2=      0.0000000000D+00
     alpha-beta  T2 =       0.8181590855D-02 E2=     -0.2633787723D-01
     beta-beta   T2 =       0.0000000000D+00 E2=      0.0000000000D+00
 ANorm=    0.1004082462D+01
 E2 =    -0.2633787723D-01 EUMP2 =    -0.11576437767832D+01
 Keep R2 and R3 ints in memory in symmetry-blocked form, NReq=803446.
 Iterations=  50 Convergence= 0.100D-07
 Iteration Nr.   1
 **********************
 DD1Dir will call FoFMem   1 times, MxPair=         2
 NAB=     1 NAA=     0 NBB=     0.
 MP4(R+Q)=  0.21548574D-03
 E3=       -0.55110835D-02        EUMP3=      -0.11631548603D+01
 E4(DQ)=   -0.13126421D-02        UMP4(DQ)=   -0.11644675024D+01
 E4(SDQ)=  -0.14148157D-02        UMP4(SDQ)=  -0.11645696759D+01
 DE(Corr)= -0.31630576E-01 E(Corr)=     -1.1629364751    
 NORM(A)=   0.10070166D+01
 Iteration Nr.   2
 **********************
 DD1Dir will call FoFMem   1 times, MxPair=         2
 NAB=     1 NAA=     0 NBB=     0.
 DE(Corr)= -0.33469584E-01 E(CORR)=     -1.1647754836     Delta=-1.84D-03
 NORM(A)=   0.10076696D+01
 Iteration Nr.   3
 **********************
 DD1Dir will call FoFMem   1 times, MxPair=         2
 NAB=     1 NAA=     0 NBB=     0.
 DE(Corr)= -0.33827244E-01 E(CORR)=     -1.1651331433     Delta=-3.58D-04
 NORM(A)=   0.10077262D+01
 Iteration Nr.   4
 **********************
 DD1Dir will call FoFMem   1 times, MxPair=         2
 NAB=     1 NAA=     0 NBB=     0.
 DE(Corr)= -0.33851995E-01 E(CORR)=     -1.1651578950     Delta=-2.48D-05
 NORM(A)=   0.10077259D+01
 Iteration Nr.   5
 **********************
 DD1Dir will call FoFMem   1 times, MxPair=         2
 NAB=     1 NAA=     0 NBB=     0.
 DE(Corr)= -0.33851254E-01 E(CORR)=     -1.1651571535     Delta= 7.42D-07
 NORM(A)=   0.10077263D+01
 Iteration Nr.   6
 **********************
 DD1Dir will call FoFMem   1 times, MxPair=         2
 NAB=     1 NAA=     0 NBB=     0.
 DE(Corr)= -0.33851448E-01 E(CORR)=     -1.1651573477     Delta=-1.94D-07
 NORM(A)=   0.10077262D+01
 Iteration Nr.   7
 **********************
 DD1Dir will call FoFMem   1 times, MxPair=         2
 NAB=     1 NAA=     0 NBB=     0.
 DE(Corr)= -0.33851415E-01 E(CORR)=     -1.1651573142     Delta= 3.35D-08
 NORM(A)=   0.10077262D+01
 Iteration Nr.   8
 **********************
 DD1Dir will call FoFMem   1 times, MxPair=         2
 NAB=     1 NAA=     0 NBB=     0.
 DE(Corr)= -0.33851415E-01 E(CORR)=     -1.1651573150     Delta=-7.34D-10
 NORM(A)=   0.10077262D+01
 Largest amplitude= 6.98D-02

 Z-AMPLITUDE ITERATIONS

 Iteration Nr.   1
 **********************
 DD1Dir will call FoFMem   1 times, MxPair=         2
 NAB=     1 NAA=     0 NBB=     0.
 DE(Z)  -0.33442827D-01          E(Z)=    -0.11647487262D+01
 NORM(A)=   0.10077262D+01
 Iteration Nr.   2
 **********************
 DD1Dir will call FoFMem   1 times, MxPair=         2
 NAB=     1 NAA=     0 NBB=     0.
 DE(Z)  -0.33442819D-01          E(Z)=    -0.11647487189D+01
 NORM(A)=   0.10077256D+01
 Iteration Nr.   3
 **********************
 DD1Dir will call FoFMem   1 times, MxPair=         2
 NAB=     1 NAA=     0 NBB=     0.
 DE(Z)  -0.33442540D-01          E(Z)=    -0.11647484396D+01
 NORM(A)=   0.10077259D+01
 Iteration Nr.   4
 **********************
 DD1Dir will call FoFMem   1 times, MxPair=         2
 NAB=     1 NAA=     0 NBB=     0.
 DE(Z)  -0.33442692D-01          E(Z)=    -0.11647485920D+01
 NORM(A)=   0.10077273D+01
 Iteration Nr.   5
 **********************
 DD1Dir will call FoFMem   1 times, MxPair=         2
 NAB=     1 NAA=     0 NBB=     0.
 DE(Z)  -0.33443310D-01          E(Z)=    -0.11647492096D+01
 NORM(A)=   0.10074840D+01
 Iteration Nr.   6
 **********************
 DD1Dir will call FoFMem   1 times, MxPair=         2
 NAB=     1 NAA=     0 NBB=     0.
 DE(Z)  -0.33328582D-01          E(Z)=    -0.11646344820D+01
 NORM(A)=   0.10074840D+01
 Iteration Nr.   7
 **********************
 DD1Dir will call FoFMem   1 times, MxPair=         2
 NAB=     1 NAA=     0 NBB=     0.
 DE(Z)  -0.33328582D-01          E(Z)=    -0.11646344819D+01
 NORM(A)=   0.10074840D+01
 Discarding MO integrals.
          IDoAtm=11
          Differentiating once with respect to electric field.
                with respect to dipole field.
          Differentiating once with respect to nuclear coordinates.
 Keep R1 ints in memory in symmetry-blocked form, NReq=805399.
          There are     1 degrees of freedom in the 1st order CPHF.  IDoFFX=0 NUNeed=     1.
 LinEq1:  Iter=  0 NonCon=     1 RMS=9.42D-03 Max=2.60D-02 NDo=     1
 AX will form     1 AO Fock derivatives at one time.
 LinEq1:  Iter=  1 NonCon=     1 RMS=1.91D-05 Max=5.29D-05 NDo=     1
 LinEq1:  Iter=  2 NonCon=     0 RMS=1.07D-19 Max=2.38D-19 NDo=     1
 Linear equations converged to 1.000D-10 1.000D-09 after     2 iterations.
 End of Minotr F.D. properties file   721 does not exist.
 End of Minotr F.D. properties file   722 does not exist.
 End of Minotr F.D. properties file   788 does not exist.
 Calling FoFJK, ICntrl=  10002127 FMM=F ISym2X=1 I1Cent= 0 IOpClX= 0 NMat=1 NMatS=1 NMatT=0.
 ***** Axes restored to original set *****
 -------------------------------------------------------------------
 Center     Atomic                   Forces (Hartrees/Bohr)
 Number     Number              X              Y              Z
 -------------------------------------------------------------------
      1        1          -0.000106854   -0.000152650    0.000132362
      2        1           0.000106854    0.000152650   -0.000132362
 -------------------------------------------------------------------
 Cartesian Forces:  Max     0.000152650 RMS     0.000131959

 GradGradGradGradGradGradGradGradGradGradGradGradGradGradGradGradGradGrad
 Berny optimization.
 Using GEDIIS/GDIIS optimizer.
 Internal  Forces:  Max     0.000228559 RMS     0.000228559
 Search for a local minimum.
 Step number   4 out of a maximum of   20
 All quantities printed in internal units (Hartrees-Bohrs-Radians)
 Mixed Optimization -- En-DIIS/RFO-DIIS
 Update second derivatives using D2CorX and points    3    4
 DE= -4.61D-05 DEPred=-6.94D-05 R= 6.63D-01
 TightC=F SS=  1.41D+00  RLast= 1.59D-02 DXNew= 1.4270D+00 4.7686D-02
 Trust test= 6.63D-01 RLast= 1.59D-02 DXMaxT set to 8.49D-01
 The second derivative matrix:
                          R1
           R1           0.39696
 ITU=  1  1
 Use linear search instead of GDIIS.
     Eigenvalues ---    0.39696
 RFO step:  Lambda= 0.00000000D+00 EMin= 3.96958403D-01
 Quartic linear search produced a step of -0.03721.
 Iteration  1 RMS(Cart)=  0.00041823 RMS(Int)=  0.00000000
 Iteration  2 RMS(Cart)=  0.00000000 RMS(Int)=  0.00000000
 ClnCor:  largest displacement from symmetrization is 9.93D-16 for atom     2.
 Variable       Old X    -DE/DX   Delta X   Delta X   Delta X     New X
                                 (Linear)    (Quad)   (Total)
    R1        1.39606  -0.00023  -0.00059   0.00000  -0.00059   1.39547
         Item               Value     Threshold  Converged?
 Maximum Force            0.000229     0.000450     YES
 RMS     Force            0.000229     0.000300     YES
 Maximum Displacement     0.000198     0.001800     YES
 RMS     Displacement     0.000418     0.001200     YES
 Predicted change in Energy=-6.575076D-08
 Optimization completed.
    -- Stationary point found.
                           ----------------------------
                           !   Optimized Parameters   !
                           ! (Angstroms and Degrees)  !
 --------------------------                            --------------------------
 ! Name  Definition              Value          Derivative Info.                !
 --------------------------------------------------------------------------------
 ! R1    R(1,2)                  0.7388         -DE/DX =   -0.0002              !
 --------------------------------------------------------------------------------
 GradGradGradGradGradGradGradGradGradGradGradGradGradGradGradGradGradGrad

                          Input orientation:                          
 ---------------------------------------------------------------------
 Center     Atomic      Atomic             Coordinates (Angstroms)
 Number     Number       Type             X           Y           Z
 ---------------------------------------------------------------------
      1          1           0       -0.192199   -2.074538    1.138616
      2          1           0       -0.537581   -2.567942    1.566444
 ---------------------------------------------------------------------
 Stoichiometry    H2
 Framework group  D*H[C*(H.H)]
 Deg. of freedom     1
 Full point group                 D*H     NOp   8
 Largest Abelian subgroup         D2H     NOp   8
 Largest concise Abelian subgroup C2      NOp   2
                         Standard orientation:                         
 ---------------------------------------------------------------------
 Center     Atomic      Atomic             Coordinates (Angstroms)
 Number     Number       Type             X           Y           Z
 ---------------------------------------------------------------------
      1          1           0        0.000000    0.000000    0.369382
      2          1           0        0.000000    0.000000   -0.369382
 ---------------------------------------------------------------------
 Rotational constants (GHZ):      0.0000000   1837.5962073   1837.5962073

 **********************************************************************

            Population analysis using the SCF density.

 **********************************************************************

 Orbital symmetries:
       Occupied  (SGG)
       Virtual   (SGU) (SGG) (SGU) (PIU) (PIU) (SGG) (PIG) (PIG)
                 (SGU)
 The electronic state is 1-SGG.
 Alpha  occ. eigenvalues --   -0.59530
 Alpha virt. eigenvalues --    0.23986   0.77066   1.31164   1.95915   1.95915
 Alpha virt. eigenvalues --    2.70868   2.93258   2.93258   4.54111
          Condensed to atoms (all electrons):
               1          2
     1  H    0.585382   0.414618
     2  H    0.414618   0.585382
 Mulliken charges:
               1
     1  H    0.000000
     2  H    0.000000
 Sum of Mulliken charges =   0.00000
 Mulliken charges with hydrogens summed into heavy atoms:
               1
 Electronic spatial extent (au):  <R**2>=              5.1675
 Charge=              0.0000 electrons
 Dipole moment (field-independent basis, Debye):
    X=              0.0000    Y=              0.0000    Z=              0.0000  Tot=              0.0000
 Quadrupole moment (field-independent basis, Debye-Ang):
   XX=             -2.0589   YY=             -2.0589   ZZ=             -1.5219
   XY=              0.0000   XZ=              0.0000   YZ=              0.0000
 Traceless Quadrupole moment (field-independent basis, Debye-Ang):
   XX=             -0.1790   YY=             -0.1790   ZZ=              0.3580
   XY=              0.0000   XZ=              0.0000   YZ=              0.0000
 Octapole moment (field-independent basis, Debye-Ang**2):
  XXX=              0.0000  YYY=              0.0000  ZZZ=              0.0000  XYY=              0.0000
  XXY=              0.0000  XXZ=              0.0000  XZZ=              0.0000  YZZ=              0.0000
  YYZ=              0.0000  XYZ=              0.0000
 Hexadecapole moment (field-independent basis, Debye-Ang**3):
 XXXX=             -1.9228 YYYY=             -1.9228 ZZZZ=             -2.8027 XXXY=              0.0000
 XXXZ=              0.0000 YYYX=              0.0000 YYYZ=              0.0000 ZZZX=              0.0000
 ZZZY=              0.0000 XXYY=             -0.6409 XXZZ=             -0.8028 YYZZ=             -0.8028
 XXYZ=              0.0000 YYXZ=              0.0000 ZZXY=              0.0000
 N-N= 7.163003274823D-01 E-N=-3.634227879006D+00  KE= 1.129621005200D+00
 Symmetry AG   KE= 1.129621005200D+00
 Symmetry B1G  KE= 0.000000000000D+00
 Symmetry B2G  KE= 1.451165382220D-32
 Symmetry B3G  KE= 7.278644355442D-34
 Symmetry AU   KE= 0.000000000000D+00
 Symmetry B1U  KE= 9.893183607904D-32
 Symmetry B2U  KE= 1.748010341829D-33
 Symmetry B3U  KE= 2.725755769061D-34
 1\1\GINC-N0298\FOpt\RCCSD-FC\6-31G(d,p)\H2\TAIYUPAN\24-Feb-2017\0\\#n 
 CCSD/6-31G(d,p) Opt\\Title\\0,1\H,-0.1921992518,-2.0745379717,1.138615
 9091\H,-0.5375807482,-2.5679420283,1.5664440909\\Version=ES64L-G09RevE
 .01\State=1-SGG\HF=-1.1313059\MP2=-1.1576438\MP3=-1.1631549\MP4D=-1.16
 4683\MP4DQ=-1.1644675\MP4SDQ=-1.1645697\CCSD=-1.1651573\RMSD=7.305e-10
 \RMSF=1.320e-04\Dipole=0.,0.,0.\PG=D*H [C*(H1.H1)]\\@


 Spring appears, and we are once more children.
                                  -- Anonymous
 Job cpu time:       0 days  0 hours  0 minutes 50.5 seconds.
 File lengths (MBytes):  RWF=     18 Int=      0 D2E=      0 Chk=      1 Scr=      1
 Normal termination of Gaussian 09 at Fri Feb 24 00:05:17 2017.
