 Entering Gaussian System, Link 0=g09
 Input=bmim.com
 Output=bmim.log
 Initial command:
 /Users/jpfaendt/Software/G09/g09/l1.exe /Users/jpfaendt/Software/G09/scratch/Gau-19335.inp -scrdir=/Users/jpfaendt/Software/G09/scratch/
 Entering Link 1 = /Users/jpfaendt/Software/G09/g09/l1.exe PID=     19336.
  
 Copyright (c) 1988,1990,1992,1993,1995,1998,2003,2009, Gaussian, Inc.
                  All Rights Reserved.
  
 This is part of the Gaussian(R) 09 program.  It is based on
 the Gaussian(R) 03 system (copyright 2003, Gaussian, Inc.),
 the Gaussian(R) 98 system (copyright 1998, Gaussian, Inc.),
 the Gaussian(R) 94 system (copyright 1995, Gaussian, Inc.),
 the Gaussian 92(TM) system (copyright 1992, Gaussian, Inc.),
 the Gaussian 90(TM) system (copyright 1990, Gaussian, Inc.),
 the Gaussian 88(TM) system (copyright 1988, Gaussian, Inc.),
 the Gaussian 86(TM) system (copyright 1986, Carnegie Mellon
 University), and the Gaussian 82(TM) system (copyright 1983,
 Carnegie Mellon University). Gaussian is a federally registered
 trademark of Gaussian, Inc.
  
 This software contains proprietary and confidential information,
 including trade secrets, belonging to Gaussian, Inc.
  
 This software is provided under written license and may be
 used, copied, transmitted, or stored only in accord with that
 written license.
  
 The following legend is applicable only to US Government
 contracts under FAR:
  
                    RESTRICTED RIGHTS LEGEND
  
 Use, reproduction and disclosure by the US Government is
 subject to restrictions as set forth in subparagraphs (a)
 and (c) of the Commercial Computer Software - Restricted
 Rights clause in FAR 52.227-19.
  
 Gaussian, Inc.
 340 Quinnipiac St., Bldg. 40, Wallingford CT 06492
  
  
 ---------------------------------------------------------------
 Warning -- This program may not be used in any manner that
 competes with the business of Gaussian, Inc. or will provide
 assistance to any competitor of Gaussian, Inc.  The licensee
 of this program is prohibited from giving any competitor of
 Gaussian, Inc. access to this program.  By using this program,
 the user acknowledges that Gaussian, Inc. is engaged in the
 business of creating and licensing software in the field of
 computational chemistry and represents and warrants to the
 licensee that it is not a competitor of Gaussian, Inc. and that
 it will not use this program in any manner prohibited above.
 ---------------------------------------------------------------
  

 Cite this work as:
 Gaussian 09, Revision A.02,
 M. J. Frisch, G. W. Trucks, H. B. Schlegel, G. E. Scuseria, 
 M. A. Robb, J. R. Cheeseman, G. Scalmani, V. Barone, B. Mennucci, 
 G. A. Petersson, H. Nakatsuji, M. Caricato, X. Li, H. P. Hratchian, 
 A. F. Izmaylov, J. Bloino, G. Zheng, J. L. Sonnenberg, M. Hada, 
 M. Ehara, K. Toyota, R. Fukuda, J. Hasegawa, M. Ishida, T. Nakajima, 
 Y. Honda, O. Kitao, H. Nakai, T. Vreven, J. A. Montgomery, Jr., 
 J. E. Peralta, F. Ogliaro, M. Bearpark, J. J. Heyd, E. Brothers, 
 K. N. Kudin, V. N. Staroverov, R. Kobayashi, J. Normand, 
 K. Raghavachari, A. Rendell, J. C. Burant, S. S. Iyengar, J. Tomasi, 
 M. Cossi, N. Rega, J. M. Millam, M. Klene, J. E. Knox, J. B. Cross, 
 V. Bakken, C. Adamo, J. Jaramillo, R. Gomperts, R. E. Stratmann, 
 O. Yazyev, A. J. Austin, R. Cammi, C. Pomelli, J. W. Ochterski, 
 R. L. Martin, K. Morokuma, V. G. Zakrzewski, G. A. Voth, 
 P. Salvador, J. J. Dannenberg, S. Dapprich, A. D. Daniels, 
 O. Farkas, J. B. Foresman, J. V. Ortiz, J. Cioslowski, 
 and D. J. Fox, Gaussian, Inc., Wallingford CT, 2009.
 
 ******************************************
 Gaussian 09:  IA32M-G09RevA.02 11-Jun-2009
                 2-Mar-2017 
 ******************************************
 %chk=bmim.chk
 %nproc=2
 Will use up to    2 processors via shared memory.
 ---------
 # PM6 OPT
 ---------
 1/14=-1,18=20,19=15,26=1,38=1/1,3;
 2/9=110,12=2,17=6,18=5,40=1/2;
 3/5=2,16=1,25=1,41=3900000,71=1/1,2,3;
 4/35=1/1;
 5/5=2,35=1,38=5/2;
 6/7=2,8=2,9=2,10=2,28=1/1;
 7//1,2,3,16;
 1/14=-1,18=20,19=15/3(2);
 2/9=110/2;
 99//99;
 2/9=110/2;
 3/5=2,16=1,25=1,41=3900000,71=1,135=20/1,2,3;
 4/5=5,16=3,35=1/1;
 5/5=2,35=1,38=5/2;
 7//1,2,3,16;
 1/14=-1,18=20,19=15/3(-5);
 2/9=110/2;
 6/7=2,8=2,9=2,10=2,19=2,28=1/1;
 99/9=1/99;
 -------------------
 Title Card Required
 -------------------
 Symbolic Z-matrix:
 Charge =  1 Multiplicity = 1
 C                    -1.14717   0.852     0.00436 
 C                     0.50471   2.42076   0.23179 
 C                    -1.42155   2.10739  -0.74419 
 H                     1.40344   2.89005   0.57379 
 H                    -1.96807   2.23691  -1.65493 
 H                    -1.82031   0.13626   0.42802 
 C                     0.93263   0.14073   1.14279 
 H                     1.99162   0.29382   1.14139 
 H                     0.5264    0.46653   2.07753 
 C                     0.63011  -1.35632   0.94549 
 H                    -0.42888  -1.5094    0.9469 
 H                     1.03634  -1.68211   0.01076 
 C                     1.26708  -2.16413   2.09149 
 H                     2.32607  -2.01104   2.09008 
 H                     0.86085  -1.83833   3.02623 
 C                     0.96456  -3.66118   1.89419 
 H                     1.37079  -3.98698   0.95945 
 H                     1.40713  -4.22245   2.69043 
 H                    -0.09443  -3.81426   1.89559 
 C                    -0.99284   4.4231    0.36521 
 H                    -1.67075   4.83413  -0.35339 
 H                    -1.46324   4.39844   1.32595 
 H                    -0.11341   5.03063   0.41416 
 N                     0.32461   0.91183   0.04889 
 N                    -0.62345   3.05762  -0.03469 
 

 GradGradGradGradGradGradGradGradGradGradGradGradGradGradGradGradGradGrad
 Berny optimization.
 Initialization pass.
                           ----------------------------
                           !    Initial Parameters    !
                           ! (Angstroms and Degrees)  !
 --------------------------                            --------------------------
 ! Name  Definition              Value          Derivative Info.                !
 --------------------------------------------------------------------------------
 ! R1    R(1,3)                  1.4872         estimate D2E/DX2                !
 ! R2    R(1,6)                  1.07           estimate D2E/DX2                !
 ! R3    R(1,24)                 1.4737         estimate D2E/DX2                !
 ! R4    R(2,4)                  1.07           estimate D2E/DX2                !
 ! R5    R(2,24)                 1.5306         estimate D2E/DX2                !
 ! R6    R(2,25)                 1.3226         estimate D2E/DX2                !
 ! R7    R(3,5)                  1.07           estimate D2E/DX2                !
 ! R8    R(3,25)                 1.4294         estimate D2E/DX2                !
 ! R9    R(7,8)                  1.07           estimate D2E/DX2                !
 ! R10   R(7,9)                  1.07           estimate D2E/DX2                !
 ! R11   R(7,10)                 1.54           estimate D2E/DX2                !
 ! R12   R(7,24)                 1.47           estimate D2E/DX2                !
 ! R13   R(10,11)                1.07           estimate D2E/DX2                !
 ! R14   R(10,12)                1.07           estimate D2E/DX2                !
 ! R15   R(10,13)                1.54           estimate D2E/DX2                !
 ! R16   R(13,14)                1.07           estimate D2E/DX2                !
 ! R17   R(13,15)                1.07           estimate D2E/DX2                !
 ! R18   R(13,16)                1.54           estimate D2E/DX2                !
 ! R19   R(16,17)                1.07           estimate D2E/DX2                !
 ! R20   R(16,18)                1.07           estimate D2E/DX2                !
 ! R21   R(16,19)                1.07           estimate D2E/DX2                !
 ! R22   R(20,21)                1.07           estimate D2E/DX2                !
 ! R23   R(20,22)                1.07           estimate D2E/DX2                !
 ! R24   R(20,23)                1.07           estimate D2E/DX2                !
 ! R25   R(20,25)                1.47           estimate D2E/DX2                !
 ! A1    A(3,1,6)              130.3829         estimate D2E/DX2                !
 ! A2    A(3,1,24)              99.5093         estimate D2E/DX2                !
 ! A3    A(6,1,24)             130.0531         estimate D2E/DX2                !
 ! A4    A(4,2,24)             124.7087         estimate D2E/DX2                !
 ! A5    A(4,2,25)             124.7254         estimate D2E/DX2                !
 ! A6    A(24,2,25)            110.5025         estimate D2E/DX2                !
 ! A7    A(1,3,5)              128.6707         estimate D2E/DX2                !
 ! A8    A(1,3,25)             102.0233         estimate D2E/DX2                !
 ! A9    A(5,3,25)             128.8426         estimate D2E/DX2                !
 ! A10   A(8,7,9)              109.4712         estimate D2E/DX2                !
 ! A11   A(8,7,10)             109.4712         estimate D2E/DX2                !
 ! A12   A(8,7,24)             109.4712         estimate D2E/DX2                !
 ! A13   A(9,7,10)             109.4712         estimate D2E/DX2                !
 ! A14   A(9,7,24)             109.4712         estimate D2E/DX2                !
 ! A15   A(10,7,24)            109.4712         estimate D2E/DX2                !
 ! A16   A(7,10,11)            109.4712         estimate D2E/DX2                !
 ! A17   A(7,10,12)            109.4712         estimate D2E/DX2                !
 ! A18   A(7,10,13)            109.4712         estimate D2E/DX2                !
 ! A19   A(11,10,12)           109.4712         estimate D2E/DX2                !
 ! A20   A(11,10,13)           109.4712         estimate D2E/DX2                !
 ! A21   A(12,10,13)           109.4712         estimate D2E/DX2                !
 ! A22   A(10,13,14)           109.4712         estimate D2E/DX2                !
 ! A23   A(10,13,15)           109.4712         estimate D2E/DX2                !
 ! A24   A(10,13,16)           109.4712         estimate D2E/DX2                !
 ! A25   A(14,13,15)           109.4712         estimate D2E/DX2                !
 ! A26   A(14,13,16)           109.4712         estimate D2E/DX2                !
 ! A27   A(15,13,16)           109.4712         estimate D2E/DX2                !
 ! A28   A(13,16,17)           109.4712         estimate D2E/DX2                !
 ! A29   A(13,16,18)           109.4712         estimate D2E/DX2                !
 ! A30   A(13,16,19)           109.4712         estimate D2E/DX2                !
 ! A31   A(17,16,18)           109.4712         estimate D2E/DX2                !
 ! A32   A(17,16,19)           109.4712         estimate D2E/DX2                !
 ! A33   A(18,16,19)           109.4712         estimate D2E/DX2                !
 ! A34   A(21,20,22)           109.4712         estimate D2E/DX2                !
 ! A35   A(21,20,23)           109.4712         estimate D2E/DX2                !
 ! A36   A(21,20,25)           109.4712         estimate D2E/DX2                !
 ! A37   A(22,20,23)           109.4712         estimate D2E/DX2                !
 ! A38   A(22,20,25)           109.4712         estimate D2E/DX2                !
 ! A39   A(23,20,25)           109.4712         estimate D2E/DX2                !
 ! A40   A(1,24,2)              99.2736         estimate D2E/DX2                !
 ! A41   A(1,24,7)             114.4737         estimate D2E/DX2                !
 ! A42   A(2,24,7)             112.3046         estimate D2E/DX2                !
 ! A43   A(2,25,3)             104.8423         estimate D2E/DX2                !
 ! A44   A(2,25,20)            127.3583         estimate D2E/DX2                !
 ! A45   A(3,25,20)            127.7501         estimate D2E/DX2                !
 ! D1    D(6,1,3,5)            -58.789          estimate D2E/DX2                !
 ! D2    D(6,1,3,25)           128.5631         estimate D2E/DX2                !
 ! D3    D(24,1,3,5)           123.7399         estimate D2E/DX2                !
 ! D4    D(24,1,3,25)          -48.908          estimate D2E/DX2                !
 ! D5    D(3,1,24,2)            37.0391         estimate D2E/DX2                !
 ! D6    D(3,1,24,7)           156.8304         estimate D2E/DX2                !
 ! D7    D(6,1,24,2)          -140.4443         estimate D2E/DX2                !
 ! D8    D(6,1,24,7)           -20.653          estimate D2E/DX2                !
 ! D9    D(4,2,24,1)           162.6875         estimate D2E/DX2                !
 ! D10   D(4,2,24,7)            41.3088         estimate D2E/DX2                !
 ! D11   D(25,2,24,1)          -14.5281         estimate D2E/DX2                !
 ! D12   D(25,2,24,7)         -135.9067         estimate D2E/DX2                !
 ! D13   D(4,2,25,3)           166.7252         estimate D2E/DX2                !
 ! D14   D(4,2,25,20)          -15.6862         estimate D2E/DX2                !
 ! D15   D(24,2,25,3)          -16.0598         estimate D2E/DX2                !
 ! D16   D(24,2,25,20)         161.5288         estimate D2E/DX2                !
 ! D17   D(1,3,25,2)            40.527          estimate D2E/DX2                !
 ! D18   D(1,3,25,20)         -137.0489         estimate D2E/DX2                !
 ! D19   D(5,3,25,2)          -132.1031         estimate D2E/DX2                !
 ! D20   D(5,3,25,20)           50.321          estimate D2E/DX2                !
 ! D21   D(8,7,10,11)          180.0            estimate D2E/DX2                !
 ! D22   D(8,7,10,12)          -60.0            estimate D2E/DX2                !
 ! D23   D(8,7,10,13)           60.0            estimate D2E/DX2                !
 ! D24   D(9,7,10,11)           60.0            estimate D2E/DX2                !
 ! D25   D(9,7,10,12)         -180.0            estimate D2E/DX2                !
 ! D26   D(9,7,10,13)          -60.0            estimate D2E/DX2                !
 ! D27   D(24,7,10,11)         -60.0            estimate D2E/DX2                !
 ! D28   D(24,7,10,12)          60.0            estimate D2E/DX2                !
 ! D29   D(24,7,10,13)         180.0            estimate D2E/DX2                !
 ! D30   D(8,7,24,1)          -176.108          estimate D2E/DX2                !
 ! D31   D(8,7,24,2)           -63.892          estimate D2E/DX2                !
 ! D32   D(9,7,24,1)           -56.108          estimate D2E/DX2                !
 ! D33   D(9,7,24,2)            56.108          estimate D2E/DX2                !
 ! D34   D(10,7,24,1)           63.892          estimate D2E/DX2                !
 ! D35   D(10,7,24,2)          176.108          estimate D2E/DX2                !
 ! D36   D(7,10,13,14)         -60.0            estimate D2E/DX2                !
 ! D37   D(7,10,13,15)          60.0            estimate D2E/DX2                !
 ! D38   D(7,10,13,16)         180.0            estimate D2E/DX2                !
 ! D39   D(11,10,13,14)        180.0            estimate D2E/DX2                !
 ! D40   D(11,10,13,15)        -60.0            estimate D2E/DX2                !
 ! D41   D(11,10,13,16)         60.0            estimate D2E/DX2                !
 ! D42   D(12,10,13,14)         60.0            estimate D2E/DX2                !
 ! D43   D(12,10,13,15)        180.0            estimate D2E/DX2                !
 ! D44   D(12,10,13,16)        -60.0            estimate D2E/DX2                !
 ! D45   D(10,13,16,17)         60.0            estimate D2E/DX2                !
 ! D46   D(10,13,16,18)        180.0            estimate D2E/DX2                !
 ! D47   D(10,13,16,19)        -60.0            estimate D2E/DX2                !
 ! D48   D(14,13,16,17)        -60.0            estimate D2E/DX2                !
 ! D49   D(14,13,16,18)         60.0            estimate D2E/DX2                !
 ! D50   D(14,13,16,19)        180.0            estimate D2E/DX2                !
 ! D51   D(15,13,16,17)        180.0            estimate D2E/DX2                !
 ! D52   D(15,13,16,18)        -60.0            estimate D2E/DX2                !
 ! D53   D(15,13,16,19)         60.0            estimate D2E/DX2                !
 ! D54   D(21,20,25,2)         151.4742         estimate D2E/DX2                !
 ! D55   D(21,20,25,3)         -31.4742         estimate D2E/DX2                !
 ! D56   D(22,20,25,2)         -88.5258         estimate D2E/DX2                !
 ! D57   D(22,20,25,3)          88.5258         estimate D2E/DX2                !
 ! D58   D(23,20,25,2)          31.4742         estimate D2E/DX2                !
 ! D59   D(23,20,25,3)        -151.4742         estimate D2E/DX2                !
 --------------------------------------------------------------------------------
 Trust Radius=3.00D-01 FncErr=1.00D-07 GrdErr=1.00D-07
 Number of steps in this run= 139 maximum allowed number of steps= 150.
 GradGradGradGradGradGradGradGradGradGradGradGradGradGradGradGradGradGrad

                          Input orientation:                          
 ---------------------------------------------------------------------
 Center     Atomic      Atomic             Coordinates (Angstroms)
 Number     Number       Type             X           Y           Z
 ---------------------------------------------------------------------
      1          6           0       -1.147166    0.851999    0.004358
      2          6           0        0.504714    2.420757    0.231794
      3          6           0       -1.421553    2.107393   -0.744190
      4          1           0        1.403438    2.890050    0.573788
      5          1           0       -1.968073    2.236911   -1.654926
      6          1           0       -1.820315    0.136260    0.428020
      7          6           0        0.932630    0.140732    1.142794
      8          1           0        1.991622    0.293819    1.141387
      9          1           0        0.526401    0.466530    2.077531
     10          6           0        0.630111   -1.356316    0.945493
     11          1           0       -0.428880   -1.509403    0.946899
     12          1           0        1.036341   -1.682114    0.010756
     13          6           0        1.267080   -2.164129    2.091489
     14          1           0        2.326071   -2.011042    2.090083
     15          1           0        0.860850   -1.838332    3.026227
     16          6           0        0.964560   -3.661178    1.894188
     17          1           0        1.370790   -3.986975    0.959451
     18          1           0        1.407129   -4.222451    2.690433
     19          1           0       -0.094431   -3.814265    1.895595
     20          6           0       -0.992839    4.423095    0.365211
     21          1           0       -1.670749    4.834131   -0.353390
     22          1           0       -1.463237    4.398444    1.325950
     23          1           0       -0.113405    5.030631    0.414160
     24          7           0        0.324615    0.911827    0.048888
     25          7           0       -0.623453    3.057617   -0.034691
 ---------------------------------------------------------------------
                    Distance matrix (angstroms):
                    1          2          3          4          5
     1  C    0.000000
     2  C    2.289418   0.000000
     3  C    1.487154   2.182028   0.000000
     4  H    3.314133   1.070000   3.214062   0.000000
     5  H    2.311947   3.115797   1.070000   4.094001   0.000000
     6  H    1.070000   3.265454   2.327756   4.242309   2.961964
     7  C    2.475376   2.492297   3.601478   2.846783   4.542608
     8  H    3.384728   2.749930   4.300490   2.721864   5.222467
     9  H    2.692110   2.688163   3.801193   2.983938   4.825753
    10  C    2.986821   3.845955   4.365963   4.332184   5.140430
    11  H    2.642071   4.102332   4.114170   4.780354   4.813884
    12  H    3.345066   4.143070   4.579470   4.621303   5.211502
    13  C    4.391096   5.006081   5.789277   5.278895   6.623519
    14  H    4.960910   5.139204   6.248144   5.212591   7.107030
    15  H    4.516824   5.106420   5.915585   5.354106   6.820822
    16  C    5.329128   6.321783   6.777240   6.697361   7.482246
    17  H    5.537867   6.506812   6.916711   6.887908   7.531251
    18  H    6.284064   7.140830   7.737247   7.420772   8.485134
    19  H    5.143835   6.480949   6.617836   6.995614   7.261781
    20  C    3.592598   2.503962   2.603276   2.852346   3.132322
    21  H    4.032307   3.301432   2.765849   3.753630   2.920265
    22  H    3.797865   2.996875   3.088063   3.325481   3.716545
    23  H    4.324068   2.688266   3.405635   2.628380   3.940277
    24  N    1.473669   1.530608   2.259968   2.313600   3.148849
    25  N    2.267279   1.322636   1.429433   2.122878   2.259806
                    6          7          8          9         10
     6  H    0.000000
     7  C    2.844227   0.000000
     8  H    3.881311   1.070000   0.000000
     9  H    2.887393   1.070000   1.747303   0.000000
    10  C    2.915502   1.540000   2.148263   2.148263   0.000000
    11  H    2.216649   2.148263   3.024610   2.468846   1.070000
    12  H    3.411902   2.148263   2.468846   3.024610   1.070000
    13  C    4.194154   2.514809   2.732978   2.732978   1.540000
    14  H    4.956398   2.732978   2.514809   3.062243   2.148263
    15  H    4.223546   2.732978   3.062243   2.514809   2.148263
    16  C    4.932111   3.875582   4.154945   4.154945   2.514809
    17  H    5.240863   4.154945   4.329403   4.668704   2.732978
    18  H    5.876502   4.653783   4.810184   4.810184   3.444314
    19  H    4.554020   4.154945   4.668704   4.329403   2.732978
    20  C    4.366419   4.759275   5.153676   4.571055   6.030945
    21  H    4.764762   5.571727   6.021773   5.460109   6.730727
    22  H    4.370354   4.888951   5.368246   4.470289   6.135481
    23  H    5.183493   5.053336   5.234251   4.899712   6.451994
    24  N    2.312135   1.470000   2.086720   2.086720   2.457987
    25  N    3.190753   3.509428   3.982506   3.535163   4.692013
                   11         12         13         14         15
    11  H    0.000000
    12  H    1.747303   0.000000
    13  C    2.148263   2.148263   0.000000
    14  H    3.024610   2.468846   1.070000   0.000000
    15  H    2.468846   3.024610   1.070000   1.747303   0.000000
    16  C    2.732978   2.732978   1.540000   2.148263   2.148263
    17  H    3.062243   2.514809   2.148263   2.468846   3.024610
    18  H    3.710993   3.710993   2.148263   2.468846   2.468846
    19  H    2.514809   3.062243   2.148263   3.024610   2.468846
    20  C    5.987566   6.443352   7.174873   7.442343   7.051428
    21  H    6.593437   7.065577   7.973953   8.294669   7.896364
    22  H    6.009679   6.704536   7.148990   7.484937   6.869476
    23  H    6.569276   6.822433   7.515567   7.638385   7.413145
    24  N    2.690081   2.690081   3.810770   4.088455   4.088455
    25  N    4.675367   5.022153   5.946545   6.237440   5.961769
                   16         17         18         19         20
    16  C    0.000000
    17  H    1.070000   0.000000
    18  H    1.070000   1.747303   0.000000
    19  H    1.070000   1.747303   1.747303   0.000000
    20  C    8.457225   8.756092   9.268871   8.426347   0.000000
    21  H    9.174243   9.422655  10.037921   9.073999   1.070000
    22  H    8.436504   8.858967   9.188071   8.345461   1.070000
    23  H    8.882569   9.155184   9.649506   8.968121   1.070000
    24  N    4.972628   5.091352   5.874555   5.091352   3.763609
    25  N    7.168303   7.388613   8.034236   7.157418   1.470000
                   21         22         23         24         25
    21  H    0.000000
    22  H    1.747303   0.000000
    23  H    1.747303   1.747303   0.000000
    24  N    4.419024   4.121141   4.158105   0.000000
    25  N    2.086720   2.086720   2.086720   2.347389   0.000000
 Stoichiometry    C8H15N2(1+)
 Framework group  C1[X(C8H15N2)]
 Deg. of freedom    69
 Full point group                 C1      NOp   1
 Largest Abelian subgroup         C1      NOp   1
 Largest concise Abelian subgroup C1      NOp   1
                         Standard orientation:                         
 ---------------------------------------------------------------------
 Center     Atomic      Atomic             Coordinates (Angstroms)
 Number     Number       Type             X           Y           Z
 ---------------------------------------------------------------------
      1          6           0        0.763187    1.175714    0.177265
      2          6           0        1.679114   -0.816067   -0.482523
      3          6           0        2.198943    1.283546   -0.195033
      4          1           0        1.764656   -1.862617   -0.688231
      5          1           0        2.719421    2.117857   -0.616848
      6          1           0        0.179469    1.753827    0.862799
      7          6           0       -0.786913   -0.729254   -0.132210
      8          1           0       -0.944373   -1.602061   -0.730804
      9          1           0       -0.626166   -1.018804    0.885248
     10          6           0       -2.025650    0.181748   -0.217092
     11          1           0       -1.868190    1.054555    0.381502
     12          1           0       -2.186397    0.471298   -1.234550
     13          6           0       -3.259659   -0.580176    0.300879
     14          1           0       -3.417120   -1.452983   -0.297715
     15          1           0       -3.098913   -0.869727    1.318337
     16          6           0       -4.498397    0.330826    0.215998
     17          1           0       -4.659143    0.620376   -0.801461
     18          1           0       -5.355793   -0.198563    0.575886
     19          1           0       -4.340936    1.203633    0.814591
     20          6           0        3.907921   -0.505175    0.615472
     21          1           0        4.672381    0.223638    0.444204
     22          1           0        3.757223   -0.623358    1.668194
     23          1           0        4.205636   -1.440951    0.190516
     24          7           0        0.391005   -0.001963   -0.626637
     25          7           0        2.655705   -0.058478   -0.011678
 ---------------------------------------------------------------------
 Rotational constants (GHZ):      4.5884403      0.5042886      0.4777065
 Standard basis: VSTO-6G (5D, 7F)
 There are    55 symmetry adapted basis functions of A   symmetry.
 Integral buffers will be    262144 words long.
 Regular integral format.
 Two-electron integral symmetry is turned off.
    55 basis functions,   330 primitive gaussians,    55 cartesian basis functions
    28 alpha electrons       28 beta electrons
       nuclear repulsion energy       314.6128997648 Hartrees.
 Do NDO integrals.
 One-electron integrals computed using PRISM.
 NBasis=    55 RedAO= F  NBF=    55
 NBsUse=    55 1.00D-04 NBFU=    55
 Simple Huckel Guess.
 Initial guess orbital symmetries:
       Occupied  (A) (A) (A) (A) (A) (A) (A) (A) (A) (A) (A) (A)
                 (A) (A) (A) (A) (A) (A) (A) (A) (A) (A) (A) (A)
                 (A) (A) (A) (A)
       Virtual   (A) (A) (A) (A) (A) (A) (A) (A) (A) (A) (A) (A)
                 (A) (A) (A) (A) (A) (A) (A) (A) (A) (A) (A) (A)
                 (A) (A) (A)
 The electronic state of the initial guess is 1-A.
 Requested convergence on RMS density matrix=1.00D-08 within 128 cycles.
 Requested convergence on MAX density matrix=1.00D-06.
 Requested convergence on             energy=1.00D-06.
 No special actions if energy rises.
 Overlap will be assumed to be unity.
 Keep J ints in memory in canonical form, NReq=889628.
 SCF Done:  E(RPM6) =  0.359734781680     A.U. after   17 cycles
             Convg  =    0.4318D-08             -V/T =  1.0038

 **********************************************************************

            Population analysis using the SCF density.

 **********************************************************************

 Orbital symmetries:
       Occupied  (A) (A) (A) (A) (A) (A) (A) (A) (A) (A) (A) (A)
                 (A) (A) (A) (A) (A) (A) (A) (A) (A) (A) (A) (A)
                 (A) (A) (A) (A)
       Virtual   (A) (A) (A) (A) (A) (A) (A) (A) (A) (A) (A) (A)
                 (A) (A) (A) (A) (A) (A) (A) (A) (A) (A) (A) (A)
                 (A) (A) (A)
 The electronic state is 1-A.
 Alpha  occ. eigenvalues --   -1.44847  -1.31714  -1.20271  -1.14866  -1.11252
 Alpha  occ. eigenvalues --   -1.06075  -0.98355  -0.93471  -0.92122  -0.87901
 Alpha  occ. eigenvalues --   -0.83815  -0.80426  -0.77134  -0.75967  -0.75082
 Alpha  occ. eigenvalues --   -0.72893  -0.69895  -0.68787  -0.68144  -0.65221
 Alpha  occ. eigenvalues --   -0.63676  -0.62036  -0.59398  -0.56496  -0.55924
 Alpha  occ. eigenvalues --   -0.55332  -0.54253  -0.51317
 Alpha virt. eigenvalues --   -0.20567  -0.19136  -0.14824  -0.11495  -0.06531
 Alpha virt. eigenvalues --   -0.05124  -0.03657  -0.02112  -0.01781  -0.00413
 Alpha virt. eigenvalues --    0.00954   0.01969   0.02287   0.03001   0.03533
 Alpha virt. eigenvalues --    0.04598   0.04789   0.04915   0.05466   0.06978
 Alpha virt. eigenvalues --    0.08795   0.11163   0.11595   0.13008   0.13342
 Alpha virt. eigenvalues --    0.13705   0.16691
          Condensed to atoms (all electrons):
              1          2          3          4          5          6
     1  C    3.980927   0.000000   0.000000   0.000000   0.000000   0.000000
     2  C    0.000000   4.005998   0.000000   0.000000   0.000000   0.000000
     3  C    0.000000   0.000000   4.225217   0.000000   0.000000   0.000000
     4  H    0.000000   0.000000   0.000000   0.774054   0.000000   0.000000
     5  H    0.000000   0.000000   0.000000   0.000000   0.763711   0.000000
     6  H    0.000000   0.000000   0.000000   0.000000   0.000000   0.787025
     7  C    0.000000   0.000000   0.000000   0.000000   0.000000   0.000000
     8  H    0.000000   0.000000   0.000000   0.000000   0.000000   0.000000
     9  H    0.000000   0.000000   0.000000   0.000000   0.000000   0.000000
    10  C    0.000000   0.000000   0.000000   0.000000   0.000000   0.000000
    11  H    0.000000   0.000000   0.000000   0.000000   0.000000   0.000000
    12  H    0.000000   0.000000   0.000000   0.000000   0.000000   0.000000
    13  C    0.000000   0.000000   0.000000   0.000000   0.000000   0.000000
    14  H    0.000000   0.000000   0.000000   0.000000   0.000000   0.000000
    15  H    0.000000   0.000000   0.000000   0.000000   0.000000   0.000000
    16  C    0.000000   0.000000   0.000000   0.000000   0.000000   0.000000
    17  H    0.000000   0.000000   0.000000   0.000000   0.000000   0.000000
    18  H    0.000000   0.000000   0.000000   0.000000   0.000000   0.000000
    19  H    0.000000   0.000000   0.000000   0.000000   0.000000   0.000000
    20  C    0.000000   0.000000   0.000000   0.000000   0.000000   0.000000
    21  H    0.000000   0.000000   0.000000   0.000000   0.000000   0.000000
    22  H    0.000000   0.000000   0.000000   0.000000   0.000000   0.000000
    23  H    0.000000   0.000000   0.000000   0.000000   0.000000   0.000000
    24  N    0.000000   0.000000   0.000000   0.000000   0.000000   0.000000
    25  N    0.000000   0.000000   0.000000   0.000000   0.000000   0.000000
              7          8          9         10         11         12
     1  C    0.000000   0.000000   0.000000   0.000000   0.000000   0.000000
     2  C    0.000000   0.000000   0.000000   0.000000   0.000000   0.000000
     3  C    0.000000   0.000000   0.000000   0.000000   0.000000   0.000000
     4  H    0.000000   0.000000   0.000000   0.000000   0.000000   0.000000
     5  H    0.000000   0.000000   0.000000   0.000000   0.000000   0.000000
     6  H    0.000000   0.000000   0.000000   0.000000   0.000000   0.000000
     7  C    4.188104   0.000000   0.000000   0.000000   0.000000   0.000000
     8  H    0.000000   0.823449   0.000000   0.000000   0.000000   0.000000
     9  H    0.000000   0.000000   0.848968   0.000000   0.000000   0.000000
    10  C    0.000000   0.000000   0.000000   4.266923   0.000000   0.000000
    11  H    0.000000   0.000000   0.000000   0.000000   0.859427   0.000000
    12  H    0.000000   0.000000   0.000000   0.000000   0.000000   0.836388
    13  C    0.000000   0.000000   0.000000   0.000000   0.000000   0.000000
    14  H    0.000000   0.000000   0.000000   0.000000   0.000000   0.000000
    15  H    0.000000   0.000000   0.000000   0.000000   0.000000   0.000000
    16  C    0.000000   0.000000   0.000000   0.000000   0.000000   0.000000
    17  H    0.000000   0.000000   0.000000   0.000000   0.000000   0.000000
    18  H    0.000000   0.000000   0.000000   0.000000   0.000000   0.000000
    19  H    0.000000   0.000000   0.000000   0.000000   0.000000   0.000000
    20  C    0.000000   0.000000   0.000000   0.000000   0.000000   0.000000
    21  H    0.000000   0.000000   0.000000   0.000000   0.000000   0.000000
    22  H    0.000000   0.000000   0.000000   0.000000   0.000000   0.000000
    23  H    0.000000   0.000000   0.000000   0.000000   0.000000   0.000000
    24  N    0.000000   0.000000   0.000000   0.000000   0.000000   0.000000
    25  N    0.000000   0.000000   0.000000   0.000000   0.000000   0.000000
             13         14         15         16         17         18
     1  C    0.000000   0.000000   0.000000   0.000000   0.000000   0.000000
     2  C    0.000000   0.000000   0.000000   0.000000   0.000000   0.000000
     3  C    0.000000   0.000000   0.000000   0.000000   0.000000   0.000000
     4  H    0.000000   0.000000   0.000000   0.000000   0.000000   0.000000
     5  H    0.000000   0.000000   0.000000   0.000000   0.000000   0.000000
     6  H    0.000000   0.000000   0.000000   0.000000   0.000000   0.000000
     7  C    0.000000   0.000000   0.000000   0.000000   0.000000   0.000000
     8  H    0.000000   0.000000   0.000000   0.000000   0.000000   0.000000
     9  H    0.000000   0.000000   0.000000   0.000000   0.000000   0.000000
    10  C    0.000000   0.000000   0.000000   0.000000   0.000000   0.000000
    11  H    0.000000   0.000000   0.000000   0.000000   0.000000   0.000000
    12  H    0.000000   0.000000   0.000000   0.000000   0.000000   0.000000
    13  C    4.220982   0.000000   0.000000   0.000000   0.000000   0.000000
    14  H    0.000000   0.860673   0.000000   0.000000   0.000000   0.000000
    15  H    0.000000   0.000000   0.866055   0.000000   0.000000   0.000000
    16  C    0.000000   0.000000   0.000000   4.453540   0.000000   0.000000
    17  H    0.000000   0.000000   0.000000   0.000000   0.842491   0.000000
    18  H    0.000000   0.000000   0.000000   0.000000   0.000000   0.835364
    19  H    0.000000   0.000000   0.000000   0.000000   0.000000   0.000000
    20  C    0.000000   0.000000   0.000000   0.000000   0.000000   0.000000
    21  H    0.000000   0.000000   0.000000   0.000000   0.000000   0.000000
    22  H    0.000000   0.000000   0.000000   0.000000   0.000000   0.000000
    23  H    0.000000   0.000000   0.000000   0.000000   0.000000   0.000000
    24  N    0.000000   0.000000   0.000000   0.000000   0.000000   0.000000
    25  N    0.000000   0.000000   0.000000   0.000000   0.000000   0.000000
             19         20         21         22         23         24
     1  C    0.000000   0.000000   0.000000   0.000000   0.000000   0.000000
     2  C    0.000000   0.000000   0.000000   0.000000   0.000000   0.000000
     3  C    0.000000   0.000000   0.000000   0.000000   0.000000   0.000000
     4  H    0.000000   0.000000   0.000000   0.000000   0.000000   0.000000
     5  H    0.000000   0.000000   0.000000   0.000000   0.000000   0.000000
     6  H    0.000000   0.000000   0.000000   0.000000   0.000000   0.000000
     7  C    0.000000   0.000000   0.000000   0.000000   0.000000   0.000000
     8  H    0.000000   0.000000   0.000000   0.000000   0.000000   0.000000
     9  H    0.000000   0.000000   0.000000   0.000000   0.000000   0.000000
    10  C    0.000000   0.000000   0.000000   0.000000   0.000000   0.000000
    11  H    0.000000   0.000000   0.000000   0.000000   0.000000   0.000000
    12  H    0.000000   0.000000   0.000000   0.000000   0.000000   0.000000
    13  C    0.000000   0.000000   0.000000   0.000000   0.000000   0.000000
    14  H    0.000000   0.000000   0.000000   0.000000   0.000000   0.000000
    15  H    0.000000   0.000000   0.000000   0.000000   0.000000   0.000000
    16  C    0.000000   0.000000   0.000000   0.000000   0.000000   0.000000
    17  H    0.000000   0.000000   0.000000   0.000000   0.000000   0.000000
    18  H    0.000000   0.000000   0.000000   0.000000   0.000000   0.000000
    19  H    0.846662   0.000000   0.000000   0.000000   0.000000   0.000000
    20  C    0.000000   4.324221   0.000000   0.000000   0.000000   0.000000
    21  H    0.000000   0.000000   0.793758   0.000000   0.000000   0.000000
    22  H    0.000000   0.000000   0.000000   0.795577   0.000000   0.000000
    23  H    0.000000   0.000000   0.000000   0.000000   0.805875   0.000000
    24  N    0.000000   0.000000   0.000000   0.000000   0.000000   5.097842
    25  N    0.000000   0.000000   0.000000   0.000000   0.000000   0.000000
             25
     1  C    0.000000
     2  C    0.000000
     3  C    0.000000
     4  H    0.000000
     5  H    0.000000
     6  H    0.000000
     7  C    0.000000
     8  H    0.000000
     9  H    0.000000
    10  C    0.000000
    11  H    0.000000
    12  H    0.000000
    13  C    0.000000
    14  H    0.000000
    15  H    0.000000
    16  C    0.000000
    17  H    0.000000
    18  H    0.000000
    19  H    0.000000
    20  C    0.000000
    21  H    0.000000
    22  H    0.000000
    23  H    0.000000
    24  N    0.000000
    25  N    4.896770
 Mulliken atomic charges:
              1
     1  C    0.019073
     2  C   -0.005998
     3  C   -0.225217
     4  H    0.225946
     5  H    0.236289
     6  H    0.212975
     7  C   -0.188104
     8  H    0.176551
     9  H    0.151032
    10  C   -0.266923
    11  H    0.140573
    12  H    0.163612
    13  C   -0.220982
    14  H    0.139327
    15  H    0.133945
    16  C   -0.453540
    17  H    0.157509
    18  H    0.164636
    19  H    0.153338
    20  C   -0.324221
    21  H    0.206242
    22  H    0.204423
    23  H    0.194125
    24  N   -0.097842
    25  N    0.103230
 Sum of Mulliken atomic charges =   1.00000
 Mulliken charges with hydrogens summed into heavy atoms:
              1
     1  C    0.232048
     2  C    0.219948
     3  C    0.011072
     7  C    0.139478
    10  C    0.037262
    13  C    0.052291
    16  C    0.021944
    20  C    0.280569
    24  N   -0.097842
    25  N    0.103230
 Sum of Mulliken charges with hydrogens summed into heavy atoms =   1.00000
 Charge=              1.0000 electrons
 Dipole moment (field-independent basis, Debye):
    X=              7.6859    Y=             -1.2819    Z=              1.2051  Tot=              7.8847
 N-N= 3.146128997648D+02 E-N=-4.887936930056D+02  KE=-9.377923575900D+01
 Calling FoFJK, ICntrl=      2127 FMM=F ISym2X=0 I1Cent= 0 IOpClX= 0 NMat=1 NMatS=1 NMatT=0.
 ***** Axes restored to original set *****
 -------------------------------------------------------------------
 Center     Atomic                   Forces (Hartrees/Bohr)
 Number     Number              X              Y              Z
 -------------------------------------------------------------------
      1        6           0.037832876    0.060135140   -0.075893387
      2        6           0.019020003   -0.049734947    0.013863660
      3        6          -0.018200919   -0.050984377    0.066717513
      4        1           0.013349126   -0.003670305    0.003269394
      5        1          -0.012670748    0.006613748    0.007611873
      6        1           0.003426332   -0.009450456   -0.012339806
      7        6          -0.000179743   -0.016176555   -0.009574362
      8        1           0.025545079    0.003895748    0.001542781
      9        1          -0.003989703    0.005988873    0.025756771
     10        6           0.010171891    0.008293278    0.014835292
     11        1          -0.019018786   -0.006789055   -0.002760604
     12        1           0.005158715   -0.008192352   -0.019642343
     13        6          -0.011955390   -0.009767838   -0.016137840
     14        1           0.019870536    0.002726752    0.003336226
     15        1          -0.004252460    0.005528984    0.018848639
     16        6           0.003326254    0.023436643    0.001818003
     17        1           0.004649320   -0.009406500   -0.011682890
     18        1           0.004984330   -0.010948925    0.009605650
     19        1          -0.013596119   -0.007310971    0.000079791
     20        6           0.012044260   -0.018521074   -0.019861257
     21        1          -0.015547839    0.012950437   -0.013146612
     22        1          -0.011077991    0.000493346    0.019898791
     23        1           0.015489303    0.017868271    0.002126393
     24        7          -0.058059965    0.067280425    0.033925591
     25        7          -0.006318360   -0.014258292   -0.042197268
 -------------------------------------------------------------------
 Cartesian Forces:  Max     0.075893387 RMS     0.023432803

 GradGradGradGradGradGradGradGradGradGradGradGradGradGradGradGradGradGrad
 Berny optimization.
 Internal  Forces:  Max     0.065127548 RMS     0.012849872
 Search for a local minimum.
 Step number   1 out of a maximum of  139
 All quantities printed in internal units (Hartrees-Bohrs-Radians)
 Mixed Optimization -- RFO/linear search
 Second derivative matrix not updated -- first step.
     Eigenvalues ---    0.00237   0.00237   0.00237   0.00766   0.00766
     Eigenvalues ---    0.00824   0.01021   0.01148   0.01486   0.01674
     Eigenvalues ---    0.03062   0.03840   0.03840   0.04026   0.04502
     Eigenvalues ---    0.04896   0.04896   0.05496   0.05720   0.05720
     Eigenvalues ---    0.07537   0.07537   0.07655   0.07655   0.08860
     Eigenvalues ---    0.11701   0.11701   0.12453   0.13064   0.15699
     Eigenvalues ---    0.15969   0.15981   0.16000   0.16000   0.16000
     Eigenvalues ---    0.16000   0.16000   0.16000   0.19059   0.21461
     Eigenvalues ---    0.21948   0.21948   0.21985   0.24960   0.27948
     Eigenvalues ---    0.28519   0.28519   0.28519   0.31719   0.32694
     Eigenvalues ---    0.35740   0.35740   0.37230   0.37230   0.37230
     Eigenvalues ---    0.37230   0.37230   0.37230   0.37230   0.37230
     Eigenvalues ---    0.37230   0.37230   0.37230   0.37230   0.37230
     Eigenvalues ---    0.37230   0.37230   0.38664   0.572831000.00000
     Eigenvalues --- 1000.000001000.000001000.000001000.000001000.00000
     Eigenvalues --- 1000.000001000.000001000.000001000.000001000.00000
     Eigenvalues --- 1000.000001000.000001000.000001000.000001000.00000
     Eigenvalues --- 1000.000001000.000001000.000001000.000001000.00000
     Eigenvalues --- 1000.000001000.000001000.000001000.000001000.00000
     Eigenvalues --- 1000.000001000.000001000.000001000.000001000.00000
     Eigenvalues --- 1000.000001000.000001000.000001000.000001000.00000
     Eigenvalues --- 1000.000001000.000001000.000001000.000001000.00000
     Eigenvalues --- 1000.000001000.000001000.000001000.000001000.00000
     Eigenvalues --- 1000.000001000.000001000.000001000.000001000.00000
     Eigenvalues --- 1000.000001000.000001000.000001000.000001000.00000
     Eigenvalues --- 1000.000001000.000001000.000001000.00000
 RFO step:  Lambda=-8.34055304D-02 EMin= 2.36824078D-03
 Linear search not attempted -- first point.
 Maximum step size (   0.300) exceeded in Quadratic search.
    -- Step size scaled by   0.431
 Iteration  1 RMS(Cart)=  0.04839566 RMS(Int)=  0.00103147
 Iteration  2 RMS(Cart)=  0.00189441 RMS(Int)=  0.00052278
 Iteration  3 RMS(Cart)=  0.00000194 RMS(Int)=  0.00052278
 Iteration  4 RMS(Cart)=  0.00000000 RMS(Int)=  0.00052278
 Variable       Old X    -DE/DX   Delta X   Delta X   Delta X     New X
                                 (Linear)    (Quad)   (Total)
    R1        2.81031  -0.06513   0.00000  -0.06531  -0.06599   2.74432
    R2        2.02201  -0.00072   0.00000  -0.00068  -0.00068   2.02133
    R3        2.78483  -0.02509   0.00000  -0.02902  -0.02844   2.75639
    R4        2.02201   0.01065   0.00000   0.01007   0.01007   2.03207
    R5        2.89243  -0.04540   0.00000  -0.05792  -0.05758   2.83485
    R6        2.49942   0.02677   0.00000   0.01779   0.01766   2.51708
    R7        2.02201   0.00079   0.00000   0.00075   0.00075   2.02276
    R8        2.70124  -0.01063   0.00000  -0.00322  -0.00337   2.69786
    R9        2.02201   0.02584   0.00000   0.02443   0.02443   2.04643
   R10        2.02201   0.02584   0.00000   0.02443   0.02443   2.04644
   R11        2.91018   0.01243   0.00000   0.01453   0.01453   2.92471
   R12        2.77790   0.03031   0.00000   0.02963   0.02963   2.80752
   R13        2.02201   0.01979   0.00000   0.01871   0.01871   2.04072
   R14        2.02201   0.02161   0.00000   0.02043   0.02043   2.04244
   R15        2.91018   0.00863   0.00000   0.01009   0.01009   2.92027
   R16        2.02201   0.02005   0.00000   0.01896   0.01896   2.04096
   R17        2.02201   0.01976   0.00000   0.01868   0.01868   2.04069
   R18        2.91018   0.00426   0.00000   0.00498   0.00498   2.91516
   R19        2.02201   0.01484   0.00000   0.01403   0.01403   2.03603
   R20        2.02201   0.01495   0.00000   0.01414   0.01414   2.03614
   R21        2.02201   0.01450   0.00000   0.01371   0.01371   2.03572
   R22        2.02201   0.02365   0.00000   0.02236   0.02236   2.04437
   R23        2.02201   0.02273   0.00000   0.02149   0.02149   2.04349
   R24        2.02201   0.02297   0.00000   0.02172   0.02172   2.04373
   R25        2.77790   0.00867   0.00000   0.00847   0.00847   2.78637
    A1        2.27561  -0.00959   0.00000  -0.01766  -0.01720   2.25841
    A2        1.73676   0.02646   0.00000   0.04692   0.04526   1.78202
    A3        2.26985  -0.01718   0.00000  -0.03068  -0.03004   2.23982
    A4        2.17658  -0.00190   0.00000  -0.01020  -0.00965   2.16692
    A5        2.17687   0.01624   0.00000   0.02247   0.02305   2.19992
    A6        1.92863  -0.01412   0.00000  -0.01097  -0.01247   1.91616
    A7        2.24573   0.00068   0.00000  -0.01004  -0.00972   2.23600
    A8        1.78064   0.00286   0.00000   0.02391   0.02067   1.80131
    A9        2.24873  -0.00594   0.00000  -0.02221  -0.02148   2.22725
   A10        1.91063  -0.00196   0.00000  -0.00629  -0.00628   1.90435
   A11        1.91063  -0.00105   0.00000  -0.00426  -0.00427   1.90637
   A12        1.91063  -0.00109   0.00000  -0.00331  -0.00331   1.90732
   A13        1.91063  -0.00039   0.00000   0.00060   0.00055   1.91118
   A14        1.91063   0.00397   0.00000   0.01143   0.01142   1.92205
   A15        1.91063   0.00053   0.00000   0.00183   0.00181   1.91245
   A16        1.91063   0.00255   0.00000   0.00638   0.00638   1.91701
   A17        1.91063   0.00070   0.00000   0.00177   0.00177   1.91241
   A18        1.91063  -0.00061   0.00000   0.00016   0.00015   1.91079
   A19        1.91063  -0.00211   0.00000  -0.00629  -0.00630   1.90434
   A20        1.91063  -0.00074   0.00000  -0.00171  -0.00172   1.90891
   A21        1.91063   0.00021   0.00000  -0.00030  -0.00031   1.91033
   A22        1.91063   0.00061   0.00000   0.00227   0.00227   1.91290
   A23        1.91063   0.00081   0.00000   0.00287   0.00287   1.91351
   A24        1.91063   0.00176   0.00000   0.00351   0.00351   1.91414
   A25        1.91063  -0.00143   0.00000  -0.00527  -0.00527   1.90536
   A26        1.91063  -0.00089   0.00000  -0.00182  -0.00183   1.90880
   A27        1.91063  -0.00085   0.00000  -0.00156  -0.00158   1.90906
   A28        1.91063   0.00553   0.00000   0.00998   0.00994   1.92057
   A29        1.91063   0.00273   0.00000   0.00436   0.00434   1.91497
   A30        1.91063   0.00586   0.00000   0.01065   0.01060   1.92123
   A31        1.91063  -0.00467   0.00000  -0.00882  -0.00884   1.90179
   A32        1.91063  -0.00478   0.00000  -0.00752  -0.00759   1.90304
   A33        1.91063  -0.00467   0.00000  -0.00864  -0.00867   1.90197
   A34        1.91063  -0.00363   0.00000  -0.00760  -0.00760   1.90303
   A35        1.91063  -0.00530   0.00000  -0.00846  -0.00854   1.90209
   A36        1.91063   0.00514   0.00000   0.00896   0.00892   1.91955
   A37        1.91063  -0.00307   0.00000  -0.00516  -0.00517   1.90546
   A38        1.91063  -0.00103   0.00000  -0.00228  -0.00228   1.90835
   A39        1.91063   0.00788   0.00000   0.01455   0.01450   1.92513
   A40        1.73265   0.01028   0.00000   0.03087   0.02963   1.76228
   A41        1.99794   0.01202   0.00000   0.02919   0.02813   2.02607
   A42        1.96009  -0.00106   0.00000   0.01311   0.01290   1.97299
   A43        1.82984   0.00640   0.00000   0.02792   0.02611   1.85595
   A44        2.22282   0.00163   0.00000  -0.00790  -0.00713   2.21569
   A45        2.22966  -0.00827   0.00000  -0.02078  -0.01992   2.20974
    D1       -1.02606   0.00230   0.00000   0.01494   0.01395  -1.01211
    D2        2.24385   0.02169   0.00000   0.08197   0.08148   2.32533
    D3        2.15967   0.00967   0.00000   0.04822   0.04782   2.20749
    D4       -0.85361   0.02905   0.00000   0.11525   0.11535  -0.73825
    D5        0.64645  -0.01258   0.00000  -0.06531  -0.06701   0.57944
    D6        2.73721  -0.00209   0.00000  -0.01758  -0.01790   2.71931
    D7       -2.45121  -0.00552   0.00000  -0.03267  -0.03409  -2.48531
    D8       -0.36046   0.00497   0.00000   0.01506   0.01502  -0.34544
    D9        2.83943   0.01662   0.00000   0.05159   0.05113   2.89057
   D10        0.72098  -0.00291   0.00000  -0.00618  -0.00673   0.71424
   D11       -0.25356   0.01120   0.00000   0.02243   0.02215  -0.23141
   D12       -2.37202  -0.00833   0.00000  -0.03535  -0.03572  -2.40774
   D13        2.90990   0.00958   0.00000   0.02533   0.02505   2.93496
   D14       -0.27378   0.00340   0.00000   0.00635   0.00565  -0.26812
   D15       -0.28030   0.01439   0.00000   0.05340   0.05359  -0.22671
   D16        2.81921   0.00821   0.00000   0.03442   0.03419   2.85340
   D17        0.70733  -0.02839   0.00000  -0.10336  -0.10410   0.60323
   D18       -2.39195  -0.02250   0.00000  -0.08471  -0.08519  -2.47715
   D19       -2.30563  -0.00964   0.00000  -0.03744  -0.03822  -2.34385
   D20        0.87827  -0.00376   0.00000  -0.01879  -0.01931   0.85895
   D21        3.14159  -0.00038   0.00000  -0.00058  -0.00058   3.14102
   D22       -1.04720  -0.00097   0.00000  -0.00329  -0.00329  -1.05049
   D23        1.04720  -0.00066   0.00000  -0.00248  -0.00248   1.04472
   D24        1.04720   0.00291   0.00000   0.00936   0.00936   1.05656
   D25       -3.14159   0.00231   0.00000   0.00665   0.00665  -3.13494
   D26       -1.04720   0.00262   0.00000   0.00746   0.00746  -1.03974
   D27       -1.04720  -0.00204   0.00000  -0.00613  -0.00613  -1.05332
   D28        1.04720  -0.00263   0.00000  -0.00884  -0.00884   1.03836
   D29        3.14159  -0.00232   0.00000  -0.00803  -0.00803   3.13356
   D30       -3.07366  -0.00974   0.00000  -0.03167  -0.03173  -3.10540
   D31       -1.11513   0.01014   0.00000   0.03441   0.03449  -1.08064
   D32       -0.97927  -0.01038   0.00000  -0.03440  -0.03449  -1.01376
   D33        0.97927   0.00950   0.00000   0.03169   0.03173   1.01100
   D34        1.11513  -0.00811   0.00000  -0.02554  -0.02560   1.08953
   D35        3.07366   0.01177   0.00000   0.04054   0.04063   3.11429
   D36       -1.04720   0.00097   0.00000   0.00308   0.00309  -1.04411
   D37        1.04720   0.00008   0.00000  -0.00022  -0.00022   1.04698
   D38        3.14159   0.00061   0.00000   0.00177   0.00177  -3.13982
   D39       -3.14159  -0.00133   0.00000  -0.00377  -0.00377   3.13783
   D40       -1.04720  -0.00222   0.00000  -0.00707  -0.00707  -1.05427
   D41        1.04720  -0.00169   0.00000  -0.00508  -0.00508   1.04212
   D42        1.04720   0.00158   0.00000   0.00516   0.00517   1.05236
   D43        3.14159   0.00069   0.00000   0.00186   0.00186  -3.13974
   D44       -1.04720   0.00122   0.00000   0.00385   0.00385  -1.04334
   D45        1.04720   0.00050   0.00000   0.00150   0.00151   1.04871
   D46        3.14159  -0.00016   0.00000  -0.00053  -0.00053   3.14106
   D47       -1.04720  -0.00062   0.00000  -0.00193  -0.00194  -1.04914
   D48       -1.04720  -0.00078   0.00000  -0.00232  -0.00230  -1.04949
   D49        1.04720  -0.00144   0.00000  -0.00434  -0.00434   1.04286
   D50        3.14159  -0.00190   0.00000  -0.00574  -0.00575   3.13585
   D51        3.14159   0.00205   0.00000   0.00621   0.00622  -3.13538
   D52       -1.04720   0.00139   0.00000   0.00418   0.00418  -1.04302
   D53        1.04720   0.00093   0.00000   0.00278   0.00277   1.04996
   D54        2.64372   0.00470   0.00000   0.01403   0.01410   2.65782
   D55       -0.54933  -0.00244   0.00000  -0.00797  -0.00797  -0.55730
   D56       -1.54507   0.00277   0.00000   0.00880   0.00883  -1.53624
   D57        1.54507  -0.00437   0.00000  -0.01319  -0.01323   1.53183
   D58        0.54933   0.00321   0.00000   0.00999   0.00999   0.55932
   D59       -2.64372  -0.00393   0.00000  -0.01201  -0.01207  -2.65580
         Item               Value     Threshold  Converged?
 Maximum Force            0.065128     0.000450     NO 
 RMS     Force            0.012850     0.000300     NO 
 Maximum Displacement     0.166703     0.001800     NO 
 RMS     Displacement     0.048568     0.001200     NO 
 Predicted change in Energy=-3.199446D-02
 GradGradGradGradGradGradGradGradGradGradGradGradGradGradGradGradGradGrad

                          Input orientation:                          
 ---------------------------------------------------------------------
 Center     Atomic      Atomic             Coordinates (Angstroms)
 Number     Number       Type             X           Y           Z
 ---------------------------------------------------------------------
      1          6           0       -1.154387    0.868753   -0.012739
      2          6           0        0.498057    2.419085    0.264316
      3          6           0       -1.471030    2.113519   -0.690435
      4          1           0        1.415050    2.870384    0.598653
      5          1           0       -2.040495    2.251775   -1.586172
      6          1           0       -1.812963    0.122781    0.379604
      7          6           0        0.910897    0.144996    1.191967
      8          1           0        1.981600    0.307194    1.196062
      9          1           0        0.502602    0.448905    2.147826
     10          6           0        0.624038   -1.358395    0.962040
     11          1           0       -0.441894   -1.531449    0.956741
     12          1           0        1.036949   -1.664518    0.011277
     13          6           0        1.272060   -2.185831    2.094951
     14          1           0        2.339014   -2.018382    2.101175
     15          1           0        0.860137   -1.883565    3.046324
     16          6           0        0.990945   -3.685664    1.868685
     17          1           0        1.403270   -4.000228    0.924293
     18          1           0        1.442918   -4.263387    2.657939
     19          1           0       -0.071000   -3.866626    1.866169
     20          6           0       -0.972103    4.455368    0.304435
     21          1           0       -1.658349    4.857910   -0.428634
     22          1           0       -1.442495    4.478281    1.277865
     23          1           0       -0.081143    5.068031    0.325945
     24          7           0        0.298207    0.941670    0.097818
     25          7           0       -0.627633    3.063383   -0.038806
 ---------------------------------------------------------------------
                    Distance matrix (angstroms):
                    1          2          3          4          5
     1  C    0.000000
     2  C    2.282731   0.000000
     3  C    1.452232   2.209575   0.000000
     4  H    3.313961   1.075327   3.250238   0.000000
     5  H    2.274561   3.145878   1.070397   4.134843   0.000000
     6  H    1.069640   3.259926   2.285813   4.244688   2.906658
     7  C    2.498107   2.490472   3.618300   2.834419   4.568072
     8  H    3.407486   2.743926   4.329242   2.692177   5.263028
     9  H    2.754982   2.725663   3.836911   3.015967   4.864198
    10  C    3.012172   3.843442   4.378833   4.317444   5.160082
    11  H    2.684866   4.119427   4.130146   4.790887   4.830602
    12  H    3.349625   4.126772   4.588674   4.588389   5.230665
    13  C    4.434014   5.015532   5.810966   5.274909   6.649513
    14  H    5.000803   5.143373   6.275518   5.197241   7.142189
    15  H    4.581640   5.136484   5.947638   5.375784   6.853811
    16  C    5.374469   6.331264   6.800070   6.691384   7.508585
    17  H    5.579123   6.516331   6.945996   6.878335   7.566340
    18  H    6.341716   7.160840   7.769661   7.425101   8.520209
    19  H    5.208439   6.511523   6.652703   7.014432   7.296054
    20  C    3.605224   2.511857   2.592865   2.880492   3.093813
    21  H    4.042317   3.328383   2.763206   3.801494   2.877129
    22  H    3.844133   3.005546   3.076867   3.348466   3.676634
    23  H    4.347470   2.712228   3.419642   2.672566   3.927665
    24  N    1.458619   1.500139   2.263796   2.284318   3.165711
    25  N    2.257111   1.331983   1.427648   2.148524   2.247049
                    6          7          8          9         10
     6  H    0.000000
     7  C    2.842506   0.000000
     8  H    3.885785   1.082926   0.000000
     9  H    2.931691   1.082927   1.764475   0.000000
    10  C    2.910686   1.547689   2.161464   2.164987   0.000000
    11  H    2.224723   2.166989   3.051426   2.496509   1.079901
    12  H    3.384095   2.164315   2.486711   3.052364   1.080812
    13  C    4.217757   2.525584   2.743469   2.745305   1.545338
    14  H    4.978684   2.747068   2.520968   3.076051   2.162025
    15  H    4.275779   2.748869   3.079054   2.524985   2.162357
    16  C    4.958177   3.890799   4.168542   4.172657   2.524442
    17  H    5.257380   4.182938   4.354562   4.701385   2.754616
    18  H    5.918618   4.676105   4.828817   4.832195   3.462024
    19  H    4.599965   4.184709   4.699254   4.362587   2.755313
    20  C    4.414070   4.786721   5.169787   4.650224   6.064648
    21  H    4.806101   5.607043   6.049618   5.545014   6.766515
    22  H    4.462567   4.931854   5.397136   4.558081   6.199765
    23  H    5.239998   5.096116   5.260948   4.999633   6.496218
    24  N    2.281890   1.485678   2.107726   2.118283   2.478577
    25  N    3.198002   3.521201   3.991186   3.590861   4.703243
                   11         12         13         14         15
    11  H    0.000000
    12  H    1.760280   0.000000
    13  C    2.159021   2.160726   0.000000
    14  H    3.046355   2.487622   1.080032   0.000000
    15  H    2.487092   3.048074   1.079888   1.760273   0.000000
    16  C    2.743230   2.745380   1.542635   2.156658   2.156735
    17  H    3.082297   2.534429   2.163259   2.487646   3.046026
    18  H    3.729621   3.731454   2.159256   2.480529   2.480731
    19  H    2.533313   3.085037   2.163613   3.046211   2.488436
    20  C    6.045544   6.447886   7.235174   7.490074   7.145427
    21  H    6.650033   7.071084   8.035550   8.346391   7.991595
    22  H    6.100915   6.744321   7.242018   7.562028   6.993042
    23  H    6.639365   6.832010   7.588086   7.695833   7.524038
    24  N    2.720627   2.710249   3.836429   4.115852   4.122063
    25  N    4.705113   5.012623   5.976286   6.261377   6.016957
                   16         17         18         19         20
    16  C    0.000000
    17  H    1.077422   0.000000
    18  H    1.077481   1.753953   0.000000
    19  H    1.077255   1.754551   1.753928   0.000000
    20  C    8.519204   8.804756   9.348154   8.515080   0.000000
    21  H    9.235210   9.469453  10.116464   9.159877   1.081834
    22  H    8.539362   8.950335   9.308435   8.477298   1.081369
    23  H    8.953022   9.208410   9.738394   9.066449   1.081493
    24  N    5.002807   5.130944   5.912461   5.136447   3.741984
    25  N    7.197774   7.412606   8.077200   7.208592   1.474482
                   21         22         23         24         25
    21  H    0.000000
    22  H    1.761491   0.000000
    23  H    1.761000   1.762736   0.000000
    24  N    4.409331   4.114628   4.150036   0.000000
    25  N    2.105866   2.097512   2.109576   2.318946   0.000000
 Stoichiometry    C8H15N2(1+)
 Framework group  C1[X(C8H15N2)]
 Deg. of freedom    69
 Full point group                 C1      NOp   1
 Largest Abelian subgroup         C1      NOp   1
 Largest concise Abelian subgroup C1      NOp   1
                         Standard orientation:                         
 ---------------------------------------------------------------------
 Center     Atomic      Atomic             Coordinates (Angstroms)
 Number     Number       Type             X           Y           Z
 ---------------------------------------------------------------------
      1          6           0        0.783292    1.186038    0.144856
      2          6           0        1.667206   -0.832074   -0.452456
      3          6           0        2.201737    1.290234   -0.148634
      4          1           0        1.732458   -1.884477   -0.663446
      5          1           0        2.732648    2.126109   -0.555078
      6          1           0        0.176997    1.788628    0.787834
      7          6           0       -0.793240   -0.738871   -0.078326
      8          1           0       -0.948049   -1.634112   -0.667653
      9          1           0       -0.656948   -1.016705    0.959442
     10          6           0       -2.033099    0.178175   -0.209165
     11          1           0       -1.889302    1.074501    0.375735
     12          1           0       -2.174114    0.450737   -1.245495
     13          6           0       -3.284590   -0.571379    0.300746
     14          1           0       -3.434083   -1.466800   -0.284354
     15          1           0       -3.147569   -0.843525    1.336757
     16          6           0       -4.523792    0.338010    0.169926
     17          1           0       -4.674133    0.611098   -0.861412
     18          1           0       -5.396982   -0.184086    0.524778
     19          1           0       -4.389153    1.232903    0.754322
     20          6           0        3.945911   -0.496677    0.549760
     21          1           0        4.708985    0.246651    0.361220
     22          1           0        3.836466   -0.626769    1.617682
     23          1           0        4.251720   -1.434855    0.107120
     24          7           0        0.409453   -0.024227   -0.578381
     25          7           0        2.660620   -0.055779   -0.022719
 ---------------------------------------------------------------------
 Rotational constants (GHZ):      4.6720321      0.4998031      0.4717271
 Standard basis: VSTO-6G (5D, 7F)
 There are    55 symmetry adapted basis functions of A   symmetry.
 Integral buffers will be    262144 words long.
 Regular integral format.
 Two-electron integral symmetry is turned off.
    55 basis functions,   330 primitive gaussians,    55 cartesian basis functions
    28 alpha electrons       28 beta electrons
       nuclear repulsion energy       313.9343807080 Hartrees.
 Do NDO integrals.
 One-electron integrals computed using PRISM.
 NBasis=    55 RedAO= F  NBF=    55
 NBsUse=    55 1.00D-04 NBFU=    55
 Initial guess read from the read-write file.
 B after Tr=     0.000000    0.000000    0.000000
         Rot=    1.000000    0.000000    0.000000    0.000000 Ang=   0.00 deg.
 Initial guess orbital symmetries:
       Occupied  (A) (A) (A) (A) (A) (A) (A) (A) (A) (A) (A) (A)
                 (A) (A) (A) (A) (A) (A) (A) (A) (A) (A) (A) (A)
                 (A) (A) (A) (A)
       Virtual   (A) (A) (A) (A) (A) (A) (A) (A) (A) (A) (A) (A)
                 (A) (A) (A) (A) (A) (A) (A) (A) (A) (A) (A) (A)
                 (A) (A) (A)
 Requested convergence on RMS density matrix=1.00D-08 within 128 cycles.
 Requested convergence on MAX density matrix=1.00D-06.
 Requested convergence on             energy=1.00D-06.
 No special actions if energy rises.
 Overlap will be assumed to be unity.
 Keep J ints in memory in canonical form, NReq=889628.
 SCF Done:  E(RPM6) =  0.327738974934     A.U. after   14 cycles
             Convg  =    0.3938D-08             -V/T =  1.0035
 Calling FoFJK, ICntrl=      2127 FMM=F ISym2X=0 I1Cent= 0 IOpClX= 0 NMat=1 NMatS=1 NMatT=0.
 ***** Axes restored to original set *****
 -------------------------------------------------------------------
 Center     Atomic                   Forces (Hartrees/Bohr)
 Number     Number              X              Y              Z
 -------------------------------------------------------------------
      1        6           0.030814262    0.044796688   -0.056343221
      2        6           0.012434946   -0.042101496    0.009373741
      3        6          -0.007208851   -0.037904103    0.050947423
      4        1           0.008981434   -0.001962437    0.002370981
      5        1          -0.014248188    0.007459919    0.007109713
      6        1           0.002217771   -0.011029179   -0.011583747
      7        6          -0.001407994   -0.017035777   -0.012871153
      8        1           0.017427634    0.003272850    0.000917161
      9        1          -0.003001428    0.004402993    0.016771650
     10        6           0.009868263    0.009257980    0.014326446
     11        1          -0.012994566   -0.005004542   -0.002462924
     12        1           0.003176622   -0.005473983   -0.013810877
     13        6          -0.011060641   -0.008733852   -0.015628216
     14        1           0.013899921    0.002149209    0.002854115
     15        1          -0.002612035    0.003661694    0.013473893
     16        6           0.002714198    0.021341324    0.001857767
     17        1           0.003364580   -0.006661925   -0.008167432
     18        1           0.003624109   -0.008039915    0.006646957
     19        1          -0.009365263   -0.005535859    0.000034415
     20        6           0.010446471   -0.016476044   -0.016838882
     21        1          -0.010672830    0.008831530   -0.009287772
     22        1          -0.007921177    0.001206405    0.014148763
     23        1           0.010649317    0.012184909    0.000778543
     24        7          -0.044529996    0.052916950    0.039672240
     25        7          -0.004596556   -0.005523340   -0.034289585
 -------------------------------------------------------------------
 Cartesian Forces:  Max     0.056343221 RMS     0.018448271

 GradGradGradGradGradGradGradGradGradGradGradGradGradGradGradGradGradGrad
 Berny optimization.
 Using GEDIIS/GDIIS optimizer.
 Internal  Forces:  Max     0.045102622 RMS     0.009495092
 Search for a local minimum.
 Step number   2 out of a maximum of  139
 All quantities printed in internal units (Hartrees-Bohrs-Radians)
 Mixed Optimization -- RFO/linear search
 Update second derivatives using D2CorX and points    1    2
 DE= -3.20D-02 DEPred=-3.20D-02 R= 1.00D+00
 SS=  1.41D+00  RLast= 3.00D-01 DXNew= 5.0454D-01 8.9948D-01
 Trust test= 1.00D+00 RLast= 3.00D-01 DXMaxT set to 5.05D-01
 Use linear search instead of GDIIS.
 Linear search step of   0.600 exceeds DXMaxT=   0.505 but not scaled.
 Quartic linear search produced a step of  2.00000.
 Iteration  1 RMS(Cart)=  0.09182048 RMS(Int)=  0.00427763
 Iteration  2 RMS(Cart)=  0.00726110 RMS(Int)=  0.00296501
 Iteration  3 RMS(Cart)=  0.00002706 RMS(Int)=  0.00296497
 Iteration  4 RMS(Cart)=  0.00000013 RMS(Int)=  0.00296497
 Variable       Old X    -DE/DX   Delta X   Delta X   Delta X     New X
                                 (Linear)    (Quad)   (Total)
    R1        2.74432  -0.04510  -0.13198   0.00000  -0.13535   2.60897
    R2        2.02133   0.00208  -0.00136   0.00000  -0.00136   2.01997
    R3        2.75639  -0.01944  -0.05688   0.00000  -0.05399   2.70240
    R4        2.03207   0.00757   0.02013   0.00000   0.02013   2.05221
    R5        2.83485  -0.03681  -0.11516   0.00000  -0.11283   2.72202
    R6        2.51708   0.01888   0.03533   0.00000   0.03501   2.55210
    R7        2.02276   0.00259   0.00150   0.00000   0.00150   2.02426
    R8        2.69786  -0.00891  -0.00675   0.00000  -0.00845   2.68941
    R9        2.04643   0.01772   0.04885   0.00000   0.04885   2.09529
   R10        2.04644   0.01717   0.04886   0.00000   0.04886   2.09529
   R11        2.92471   0.00297   0.02906   0.00000   0.02906   2.95377
   R12        2.80752   0.01517   0.05925   0.00000   0.05925   2.86678
   R13        2.04072   0.01364   0.03742   0.00000   0.03742   2.07814
   R14        2.04244   0.01491   0.04086   0.00000   0.04086   2.08330
   R15        2.92027   0.00200   0.02017   0.00000   0.02017   2.94044
   R16        2.04096   0.01408   0.03791   0.00000   0.03791   2.07888
   R17        2.04069   0.01389   0.03737   0.00000   0.03737   2.07806
   R18        2.91516  -0.00119   0.00996   0.00000   0.00996   2.92512
   R19        2.03603   0.01039   0.02805   0.00000   0.02805   2.06408
   R20        2.03614   0.01070   0.02827   0.00000   0.02827   2.06442
   R21        2.03572   0.01016   0.02742   0.00000   0.02742   2.06314
   R22        2.04437   0.01635   0.04473   0.00000   0.04473   2.08910
   R23        2.04349   0.01621   0.04297   0.00000   0.04297   2.08646
   R24        2.04373   0.01569   0.04344   0.00000   0.04344   2.08716
   R25        2.78637   0.00223   0.01694   0.00000   0.01694   2.80331
    A1        2.25841  -0.00558  -0.03439   0.00000  -0.03230   2.22611
    A2        1.78202   0.01882   0.09052   0.00000   0.08113   1.86315
    A3        2.23982  -0.01365  -0.06008   0.00000  -0.05617   2.18365
    A4        2.16692  -0.00107  -0.01931   0.00000  -0.01646   2.15047
    A5        2.19992   0.01028   0.04609   0.00000   0.04855   2.24847
    A6        1.91616  -0.00913  -0.02494   0.00000  -0.03263   1.88353
    A7        2.23600   0.00144  -0.01945   0.00000  -0.01847   2.21753
    A8        1.80131   0.00164   0.04133   0.00000   0.02266   1.82397
    A9        2.22725  -0.00592  -0.04295   0.00000  -0.03854   2.18871
   A10        1.90435  -0.00128  -0.01257   0.00000  -0.01255   1.89180
   A11        1.90637  -0.00050  -0.00854   0.00000  -0.00857   1.89779
   A12        1.90732  -0.00104  -0.00662   0.00000  -0.00658   1.90074
   A13        1.91118   0.00034   0.00110   0.00000   0.00083   1.91201
   A14        1.92205   0.00190   0.02283   0.00000   0.02275   1.94480
   A15        1.91245   0.00055   0.00362   0.00000   0.00349   1.91593
   A16        1.91701   0.00189   0.01276   0.00000   0.01276   1.92977
   A17        1.91241   0.00064   0.00355   0.00000   0.00355   1.91596
   A18        1.91079  -0.00068   0.00031   0.00000   0.00030   1.91109
   A19        1.90434  -0.00176  -0.01259   0.00000  -0.01264   1.89170
   A20        1.90891  -0.00035  -0.00345   0.00000  -0.00350   1.90541
   A21        1.91033   0.00026  -0.00061   0.00000  -0.00063   1.90970
   A22        1.91290   0.00056   0.00454   0.00000   0.00455   1.91745
   A23        1.91351   0.00068   0.00574   0.00000   0.00575   1.91926
   A24        1.91414   0.00109   0.00701   0.00000   0.00699   1.92113
   A25        1.90536  -0.00128  -0.01055   0.00000  -0.01059   1.89477
   A26        1.90880  -0.00056  -0.00366   0.00000  -0.00371   1.90509
   A27        1.90906  -0.00051  -0.00315   0.00000  -0.00322   1.90583
   A28        1.92057   0.00403   0.01987   0.00000   0.01960   1.94017
   A29        1.91497   0.00202   0.00868   0.00000   0.00857   1.92354
   A30        1.92123   0.00424   0.02120   0.00000   0.02091   1.94214
   A31        1.90179  -0.00349  -0.01768   0.00000  -0.01778   1.88401
   A32        1.90304  -0.00351  -0.01519   0.00000  -0.01560   1.88744
   A33        1.90197  -0.00347  -0.01733   0.00000  -0.01745   1.88452
   A34        1.90303  -0.00262  -0.01520   0.00000  -0.01516   1.88787
   A35        1.90209  -0.00373  -0.01708   0.00000  -0.01757   1.88452
   A36        1.91955   0.00347   0.01784   0.00000   0.01759   1.93714
   A37        1.90546  -0.00207  -0.01034   0.00000  -0.01037   1.89509
   A38        1.90835  -0.00040  -0.00457   0.00000  -0.00457   1.90378
   A39        1.92513   0.00522   0.02900   0.00000   0.02872   1.95386
   A40        1.76228   0.00821   0.05926   0.00000   0.05169   1.81398
   A41        2.02607   0.00806   0.05625   0.00000   0.04974   2.07581
   A42        1.97299   0.00123   0.02580   0.00000   0.02452   1.99750
   A43        1.85595   0.00300   0.05221   0.00000   0.04126   1.89721
   A44        2.21569   0.00169  -0.01427   0.00000  -0.00972   2.20597
   A45        2.20974  -0.00497  -0.03984   0.00000  -0.03456   2.17518
    D1       -1.01211   0.00327   0.02790   0.00000   0.02283  -0.98928
    D2        2.32533   0.01875   0.16297   0.00000   0.15960   2.48493
    D3        2.20749   0.00926   0.09564   0.00000   0.09350   2.30099
    D4       -0.73825   0.02473   0.23071   0.00000   0.23027  -0.50798
    D5        0.57944  -0.01287  -0.13403   0.00000  -0.14308   0.43636
    D6        2.71931  -0.00118  -0.03579   0.00000  -0.03779   2.68151
    D7       -2.48531  -0.00746  -0.06818   0.00000  -0.07585  -2.56116
    D8       -0.34544   0.00424   0.03005   0.00000   0.02943  -0.31601
    D9        2.89057   0.01285   0.10227   0.00000   0.09874   2.98930
   D10        0.71424  -0.00290  -0.01347   0.00000  -0.01705   0.69719
   D11       -0.23141   0.00818   0.04430   0.00000   0.04175  -0.18967
   D12       -2.40774  -0.00757  -0.07144   0.00000  -0.07404  -2.48178
   D13        2.93496   0.00705   0.05011   0.00000   0.04763   2.98259
   D14       -0.26812   0.00213   0.01131   0.00000   0.00706  -0.26106
   D15       -0.22671   0.01166   0.10718   0.00000   0.10785  -0.11886
   D16        2.85340   0.00675   0.06838   0.00000   0.06728   2.92068
   D17        0.60323  -0.02414  -0.20820   0.00000  -0.21099   0.39225
   D18       -2.47715  -0.01955  -0.17039   0.00000  -0.17237  -2.64951
   D19       -2.34385  -0.00990  -0.07644   0.00000  -0.08008  -2.42394
   D20        0.85895  -0.00531  -0.03863   0.00000  -0.04146   0.81749
   D21        3.14102   0.00005  -0.00115   0.00000  -0.00113   3.13989
   D22       -1.05049  -0.00055  -0.00658   0.00000  -0.00656  -1.05704
   D23        1.04472  -0.00026  -0.00496   0.00000  -0.00496   1.03976
   D24        1.05656   0.00171   0.01872   0.00000   0.01871   1.07527
   D25       -3.13494   0.00110   0.01330   0.00000   0.01328  -3.12166
   D26       -1.03974   0.00139   0.01491   0.00000   0.01488  -1.02486
   D27       -1.05332  -0.00118  -0.01225   0.00000  -0.01224  -1.06556
   D28        1.03836  -0.00179  -0.01768   0.00000  -0.01767   1.02069
   D29        3.13356  -0.00150  -0.01606   0.00000  -0.01607   3.11749
   D30       -3.10540  -0.00828  -0.06347   0.00000  -0.06355   3.11423
   D31       -1.08064   0.00924   0.06898   0.00000   0.06913  -1.01151
   D32       -1.01376  -0.00933  -0.06898   0.00000  -0.06923  -1.08298
   D33        1.01100   0.00819   0.06347   0.00000   0.06346   1.07446
   D34        1.08953  -0.00737  -0.05119   0.00000  -0.05122   1.03832
   D35        3.11429   0.01015   0.08125   0.00000   0.08147  -3.08743
   D36       -1.04411   0.00076   0.00617   0.00000   0.00618  -1.03793
   D37        1.04698  -0.00005  -0.00044   0.00000  -0.00047   1.04651
   D38       -3.13982   0.00042   0.00355   0.00000   0.00355  -3.13627
   D39        3.13783  -0.00092  -0.00753   0.00000  -0.00750   3.13033
   D40       -1.05427  -0.00173  -0.01415   0.00000  -0.01415  -1.06842
   D41        1.04212  -0.00126  -0.01016   0.00000  -0.01013   1.03198
   D42        1.05236   0.00128   0.01033   0.00000   0.01033   1.06270
   D43       -3.13974   0.00047   0.00371   0.00000   0.00368  -3.13606
   D44       -1.04334   0.00094   0.00771   0.00000   0.00770  -1.03565
   D45        1.04871   0.00041   0.00302   0.00000   0.00311   1.05182
   D46        3.14106  -0.00011  -0.00106   0.00000  -0.00106   3.14000
   D47       -1.04914  -0.00049  -0.00388   0.00000  -0.00396  -1.05309
   D48       -1.04949  -0.00060  -0.00459   0.00000  -0.00449  -1.05398
   D49        1.04286  -0.00112  -0.00868   0.00000  -0.00866   1.03420
   D50        3.13585  -0.00150  -0.01150   0.00000  -0.01155   3.12429
   D51       -3.13538   0.00160   0.01243   0.00000   0.01250  -3.12288
   D52       -1.04302   0.00108   0.00835   0.00000   0.00832  -1.03470
   D53        1.04996   0.00070   0.00553   0.00000   0.00543   1.05539
   D54        2.65782   0.00351   0.02819   0.00000   0.02835   2.68617
   D55       -0.55730  -0.00203  -0.01593   0.00000  -0.01568  -0.57297
   D56       -1.53624   0.00216   0.01766   0.00000   0.01758  -1.51865
   D57        1.53183  -0.00338  -0.02646   0.00000  -0.02644   1.50539
   D58        0.55932   0.00260   0.01998   0.00000   0.01975   0.57907
   D59       -2.65580  -0.00294  -0.02415   0.00000  -0.02428  -2.68007
         Item               Value     Threshold  Converged?
 Maximum Force            0.045103     0.000450     NO 
 RMS     Force            0.009495     0.000300     NO 
 Maximum Displacement     0.348665     0.001800     NO 
 RMS     Displacement     0.094677     0.001200     NO 
 Predicted change in Energy=-4.017738D-02
 GradGradGradGradGradGradGradGradGradGradGradGradGradGradGradGradGradGrad

                          Input orientation:                          
 ---------------------------------------------------------------------
 Center     Atomic      Atomic             Coordinates (Angstroms)
 Number     Number       Type             X           Y           Z
 ---------------------------------------------------------------------
      1          6           0       -1.161660    0.915322   -0.030278
      2          6           0        0.487083    2.418643    0.335186
      3          6           0       -1.553765    2.121751   -0.575133
      4          1           0        1.439112    2.832287    0.654394
      5          1           0       -2.165467    2.270175   -1.441875
      6          1           0       -1.788850    0.115827    0.301429
      7          6           0        0.868918    0.154235    1.290008
      8          1           0        1.963288    0.331836    1.304261
      9          1           0        0.459575    0.412442    2.287586
     10          6           0        0.609593   -1.358435    0.993769
     11          1           0       -0.469619   -1.568856    0.974474
     12          1           0        1.033294   -1.624098    0.011288
     13          6           0        1.279754   -2.226195    2.097877
     14          1           0        2.362530   -2.032941    2.119292
     15          1           0        0.859318   -1.972312    3.081766
     16          6           0        1.037482   -3.728264    1.813097
     17          1           0        1.460221   -4.020068    0.849154
     18          1           0        1.508506   -4.339739    2.586185
     19          1           0       -0.028833   -3.962343    1.801529
     20          6           0       -0.936845    4.504258    0.178871
     21          1           0       -1.641597    4.882877   -0.584088
[...]
     6  H    1.085834   3.294590   2.241482   4.307222   2.757541
     7  C    2.569767   2.549096   3.695743   2.900836   4.720507
     8  H    3.403975   2.734144   4.344357   2.702391   5.406612
     9  H    2.738049   3.385114   4.041691   3.871050   4.957865
    10  C    3.380199   3.352309   4.452359   3.573101   5.422348
    11  H    3.184216   3.731072   4.276984   4.186222   5.113029
    12  H    3.768699   3.162681   4.563922   3.153955   5.547415
    13  C    4.742779   4.722024   5.913613   4.772881   6.880819
    14  H    5.249283   4.836424   6.349822   4.667880   7.379184
    15  H    4.845735   5.226267   6.145875   5.420187   7.057130
    16  C    5.806368   5.782326   6.897345   5.789655   7.805710
    17  H    6.093483   5.729589   7.026326   5.593276   7.949757
    18  H    6.761760   6.741192   7.905736   6.692027   8.823567
    19  H    5.748718   6.060669   6.841563   6.233030   7.650901
    20  C    3.672532   2.535093   2.547529   2.899105   2.868470
    21  H    4.101080   3.279171   2.874016   3.692213   2.922149
    22  H    4.112412   3.245277   2.907885   3.637282   2.987700
    23  H    4.378801   2.694900   3.458091   2.614539   3.931327
    24  N    1.398454   1.383400   2.254524   2.205972   3.315575
    25  N    2.251076   1.381778   1.398521   2.207828   2.195433
                    6          7          8          9         10
     6  H    0.000000
     7  C    2.888646   0.000000
     8  H    3.852410   1.117278   0.000000
     9  H    2.667795   1.118747   1.788597   0.000000
    10  C    3.577926   1.534266   2.196600   2.195603   0.000000
    11  H    3.165381   2.189625   3.121705   2.563943   1.109632
    12  H    4.204047   2.190514   2.567379   3.121816   1.108710
    13  C    4.762875   2.521012   2.774460   2.771584   1.537237
    14  H    5.406272   2.759415   2.545353   3.102819   2.186357
    15  H    4.643081   2.759605   3.106193   2.541638   2.185977
    16  C    5.790403   3.878072   4.192243   4.189513   2.523916
    17  H    6.245068   4.225233   4.435377   4.776608   2.807812
    18  H    6.684714   4.689851   4.870605   4.866838   3.487041
    19  H    5.597132   4.224270   4.777931   4.432063   2.806559
    20  C    4.697024   5.035891   5.237156   5.744353   5.714842
    21  H    5.045051   5.673037   6.009869   6.392761   6.136457
    22  H    5.064272   5.650518   5.802039   6.224437   6.520834
    23  H    5.451903   5.229485   5.231423   6.064282   5.846905
    24  N    2.194350   1.484419   2.133118   2.126305   2.484754
    25  N    3.312395   3.673267   4.026909   4.322006   4.426257
                   11         12         13         14         15
    11  H    0.000000
    12  H    1.768302   0.000000
    13  C    2.174936   2.175106   0.000000
    14  H    3.099729   2.546009   1.109069   0.000000
    15  H    2.542977   3.099330   1.109319   1.771553   0.000000
    16  C    2.749104   2.748033   1.524266   2.163823   2.163523
    17  H    3.126560   2.576183   2.190530   2.539942   3.095709
    18  H    3.762881   3.763091   2.175170   2.498245   2.497207
    19  H    2.575409   3.122682   2.190205   3.095718   2.539094
    20  C    5.850999   5.362957   7.169025   7.326608   7.690973
    21  H    6.113171   5.718988   7.640711   7.907322   8.196270
    22  H    6.664885   6.280305   7.945945   8.070878   8.373784
    23  H    6.147581   5.340741   7.217927   7.234778   7.849691
    24  N    2.740336   2.748402   3.839146   4.141561   4.136226
    25  N    4.531033   4.256955   5.889887   6.129558   6.322771
                   16         17         18         19         20
    16  C    0.000000
    17  H    1.096712   0.000000
    18  H    1.099809   1.762204   0.000000
    19  H    1.096956   1.769233   1.761944   0.000000
    20  C    8.072563   7.885557   9.092188   8.223567   0.000000
    21  H    8.388856   8.148573   9.449894   8.427738   1.111741
    22  H    8.954962   8.838098   9.951606   9.113942   1.111946
    23  H    8.087212   7.785714   9.072989   8.358342   1.108071
    24  N    5.008273   5.196422   5.941625   5.190974   3.657303
    25  N    6.872165   6.821891   7.881865   6.994562   1.465980
                   21         22         23         24         25
    21  H    0.000000
    22  H    1.795021   0.000000
    23  H    1.788352   1.789355   0.000000
    24  N    4.277149   4.254660   4.023153   0.000000
    25  N    2.133855   2.134030   2.145896   2.235691   0.000000
 Stoichiometry    C8H15N2(1+)
 Framework group  C1[X(C8H15N2)]
 Deg. of freedom    69
 Full point group                 C1      NOp   1
 Largest Abelian subgroup         C1      NOp   1
 Largest concise Abelian subgroup C1      NOp   1
                         Standard orientation:                         
 ---------------------------------------------------------------------
 Center     Atomic      Atomic             Coordinates (Angstroms)
 Number     Number       Type             X           Y           Z
 ---------------------------------------------------------------------
      1          6           0        1.113546    1.453043   -0.216201
      2          6           0        1.332795   -0.679807    0.489249
      3          6           0        2.401198    1.023789   -0.539367
      4          1           0        1.114773   -1.652377    0.928574
      5          1           0        3.196864    1.568990   -1.037532
      6          1           0        0.651416    2.417922   -0.401888
      7          6           0       -0.939045    0.396138    0.912304
      8          1           0       -1.016784   -0.250679    1.819991
      9          1           0       -1.203464    1.431813    1.242539
     10          6           0       -1.896447   -0.084739   -0.185927
     11          1           0       -1.814508    0.555758   -1.088331
     12          1           0       -1.633755   -1.108850   -0.519736
     13          6           0       -3.346397   -0.067030    0.324395
     14          1           0       -3.447719   -0.710703    1.221866
     15          1           0       -3.628409    0.955724    0.648481
     16          6           0       -4.312518   -0.542449   -0.754480
     17          1           0       -4.106524   -1.570710   -1.075452
     18          1           0       -5.349347   -0.527592   -0.387950
     19          1           0       -4.285647    0.093832   -1.647641
     20          6           0        3.721286   -1.132882   -0.229453
     21          1           0        4.031565   -1.219687   -1.293483
     22          1           0        4.574406   -0.698527    0.336184
     23          1           0        3.559142   -2.160437    0.152203
     24          7           0        0.463540    0.394541    0.426246
     25          7           0        2.523815   -0.297519   -0.097811
 ---------------------------------------------------------------------
 Rotational constants (GHZ):      3.6497943      0.5158116      0.4914989

 **********************************************************************

            Population analysis using the SCF density.

 **********************************************************************

 Orbital symmetries:
       Occupied  (A) (A) (A) (A) (A) (A) (A) (A) (A) (A) (A) (A)
                 (A) (A) (A) (A) (A) (A) (A) (A) (A) (A) (A) (A)
                 (A) (A) (A) (A)
       Virtual   (A) (A) (A) (A) (A) (A) (A) (A) (A) (A) (A) (A)
                 (A) (A) (A) (A) (A) (A) (A) (A) (A) (A) (A) (A)
                 (A) (A) (A)
 The electronic state is 1-A.
 Alpha  occ. eigenvalues --   -1.45607  -1.31841  -1.19149  -1.14397  -1.10962
 Alpha  occ. eigenvalues --   -1.05597  -0.97809  -0.95737  -0.92491  -0.87482
 Alpha  occ. eigenvalues --   -0.83368  -0.77547  -0.75606  -0.74653  -0.73320
 Alpha  occ. eigenvalues --   -0.71656  -0.70557  -0.69790  -0.66355  -0.65417
 Alpha  occ. eigenvalues --   -0.64524  -0.62153  -0.58311  -0.58111  -0.55618
 Alpha  occ. eigenvalues --   -0.54613  -0.53635  -0.53351
 Alpha virt. eigenvalues --   -0.16585  -0.14546  -0.14013  -0.11792  -0.04779
 Alpha virt. eigenvalues --   -0.04140  -0.00970  -0.00941  -0.00679   0.00742
 Alpha virt. eigenvalues --    0.02218   0.02841   0.02970   0.03133   0.03520
 Alpha virt. eigenvalues --    0.04170   0.04388   0.05227   0.05445   0.05975
 Alpha virt. eigenvalues --    0.07376   0.10005   0.10082   0.11881   0.12493
 Alpha virt. eigenvalues --    0.12732   0.15797
          Condensed to atoms (all electrons):
              1          2          3          4          5          6
     1  C    4.112043   0.000000   0.000000   0.000000   0.000000   0.000000
     2  C    0.000000   4.077544   0.000000   0.000000   0.000000   0.000000
     3  C    0.000000   0.000000   4.131111   0.000000   0.000000   0.000000
     4  H    0.000000   0.000000   0.000000   0.762073   0.000000   0.000000
     5  H    0.000000   0.000000   0.000000   0.000000   0.773858   0.000000
     6  H    0.000000   0.000000   0.000000   0.000000   0.000000   0.775089
     7  C    0.000000   0.000000   0.000000   0.000000   0.000000   0.000000
     8  H    0.000000   0.000000   0.000000   0.000000   0.000000   0.000000
     9  H    0.000000   0.000000   0.000000   0.000000   0.000000   0.000000
    10  C    0.000000   0.000000   0.000000   0.000000   0.000000   0.000000
    11  H    0.000000   0.000000   0.000000   0.000000   0.000000   0.000000
    12  H    0.000000   0.000000   0.000000   0.000000   0.000000   0.000000
    13  C    0.000000   0.000000   0.000000   0.000000   0.000000   0.000000
    14  H    0.000000   0.000000   0.000000   0.000000   0.000000   0.000000
    15  H    0.000000   0.000000   0.000000   0.000000   0.000000   0.000000
    16  C    0.000000   0.000000   0.000000   0.000000   0.000000   0.000000
    17  H    0.000000   0.000000   0.000000   0.000000   0.000000   0.000000
    18  H    0.000000   0.000000   0.000000   0.000000   0.000000   0.000000
    19  H    0.000000   0.000000   0.000000   0.000000   0.000000   0.000000
    20  C    0.000000   0.000000   0.000000   0.000000   0.000000   0.000000
    21  H    0.000000   0.000000   0.000000   0.000000   0.000000   0.000000
    22  H    0.000000   0.000000   0.000000   0.000000   0.000000   0.000000
    23  H    0.000000   0.000000   0.000000   0.000000   0.000000   0.000000
    24  N    0.000000   0.000000   0.000000   0.000000   0.000000   0.000000
    25  N    0.000000   0.000000   0.000000   0.000000   0.000000   0.000000
              7          8          9         10         11         12
     1  C    0.000000   0.000000   0.000000   0.000000   0.000000   0.000000
     2  C    0.000000   0.000000   0.000000   0.000000   0.000000   0.000000
     3  C    0.000000   0.000000   0.000000   0.000000   0.000000   0.000000
     4  H    0.000000   0.000000   0.000000   0.000000   0.000000   0.000000
     5  H    0.000000   0.000000   0.000000   0.000000   0.000000   0.000000
     6  H    0.000000   0.000000   0.000000   0.000000   0.000000   0.000000
     7  C    4.147904   0.000000   0.000000   0.000000   0.000000   0.000000
     8  H    0.000000   0.823684   0.000000   0.000000   0.000000   0.000000
     9  H    0.000000   0.000000   0.818458   0.000000   0.000000   0.000000
    10  C    0.000000   0.000000   0.000000   4.294594   0.000000   0.000000
    11  H    0.000000   0.000000   0.000000   0.000000   0.840199   0.000000
    12  H    0.000000   0.000000   0.000000   0.000000   0.000000   0.844319
    13  C    0.000000   0.000000   0.000000   0.000000   0.000000   0.000000
    14  H    0.000000   0.000000   0.000000   0.000000   0.000000   0.000000
    15  H    0.000000   0.000000   0.000000   0.000000   0.000000   0.000000
    16  C    0.000000   0.000000   0.000000   0.000000   0.000000   0.000000
    17  H    0.000000   0.000000   0.000000   0.000000   0.000000   0.000000
    18  H    0.000000   0.000000   0.000000   0.000000   0.000000   0.000000
    19  H    0.000000   0.000000   0.000000   0.000000   0.000000   0.000000
    20  C    0.000000   0.000000   0.000000   0.000000   0.000000   0.000000
    21  H    0.000000   0.000000   0.000000   0.000000   0.000000   0.000000
    22  H    0.000000   0.000000   0.000000   0.000000   0.000000   0.000000
    23  H    0.000000   0.000000   0.000000   0.000000   0.000000   0.000000
    24  N    0.000000   0.000000   0.000000   0.000000   0.000000   0.000000
    25  N    0.000000   0.000000   0.000000   0.000000   0.000000   0.000000
             13         14         15         16         17         18
     1  C    0.000000   0.000000   0.000000   0.000000   0.000000   0.000000
     2  C    0.000000   0.000000   0.000000   0.000000   0.000000   0.000000
     3  C    0.000000   0.000000   0.000000   0.000000   0.000000   0.000000
     4  H    0.000000   0.000000   0.000000   0.000000   0.000000   0.000000
     5  H    0.000000   0.000000   0.000000   0.000000   0.000000   0.000000
     6  H    0.000000   0.000000   0.000000   0.000000   0.000000   0.000000
     7  C    0.000000   0.000000   0.000000   0.000000   0.000000   0.000000
     8  H    0.000000   0.000000   0.000000   0.000000   0.000000   0.000000
     9  H    0.000000   0.000000   0.000000   0.000000   0.000000   0.000000
    10  C    0.000000   0.000000   0.000000   0.000000   0.000000   0.000000
    11  H    0.000000   0.000000   0.000000   0.000000   0.000000   0.000000
    12  H    0.000000   0.000000   0.000000   0.000000   0.000000   0.000000
    13  C    4.211544   0.000000   0.000000   0.000000   0.000000   0.000000
    14  H    0.000000   0.862468   0.000000   0.000000   0.000000   0.000000
    15  H    0.000000   0.000000   0.861184   0.000000   0.000000   0.000000
    16  C    0.000000   0.000000   0.000000   4.465044   0.000000   0.000000
    17  H    0.000000   0.000000   0.000000   0.000000   0.843676   0.000000
    18  H    0.000000   0.000000   0.000000   0.000000   0.000000   0.833068
    19  H    0.000000   0.000000   0.000000   0.000000   0.000000   0.000000
    20  C    0.000000   0.000000   0.000000   0.000000   0.000000   0.000000
    21  H    0.000000   0.000000   0.000000   0.000000   0.000000   0.000000
    22  H    0.000000   0.000000   0.000000   0.000000   0.000000   0.000000
    23  H    0.000000   0.000000   0.000000   0.000000   0.000000   0.000000
    24  N    0.000000   0.000000   0.000000   0.000000   0.000000   0.000000
    25  N    0.000000   0.000000   0.000000   0.000000   0.000000   0.000000
             19         20         21         22         23         24
     1  C    0.000000   0.000000   0.000000   0.000000   0.000000   0.000000
     2  C    0.000000   0.000000   0.000000   0.000000   0.000000   0.000000
     3  C    0.000000   0.000000   0.000000   0.000000   0.000000   0.000000
     4  H    0.000000   0.000000   0.000000   0.000000   0.000000   0.000000
     5  H    0.000000   0.000000   0.000000   0.000000   0.000000   0.000000
     6  H    0.000000   0.000000   0.000000   0.000000   0.000000   0.000000
     7  C    0.000000   0.000000   0.000000   0.000000   0.000000   0.000000
     8  H    0.000000   0.000000   0.000000   0.000000   0.000000   0.000000
     9  H    0.000000   0.000000   0.000000   0.000000   0.000000   0.000000
    10  C    0.000000   0.000000   0.000000   0.000000   0.000000   0.000000
    11  H    0.000000   0.000000   0.000000   0.000000   0.000000   0.000000
    12  H    0.000000   0.000000   0.000000   0.000000   0.000000   0.000000
    13  C    0.000000   0.000000   0.000000   0.000000   0.000000   0.000000
    14  H    0.000000   0.000000   0.000000   0.000000   0.000000   0.000000
    15  H    0.000000   0.000000   0.000000   0.000000   0.000000   0.000000
    16  C    0.000000   0.000000   0.000000   0.000000   0.000000   0.000000
    17  H    0.000000   0.000000   0.000000   0.000000   0.000000   0.000000
    18  H    0.000000   0.000000   0.000000   0.000000   0.000000   0.000000
    19  H    0.842646   0.000000   0.000000   0.000000   0.000000   0.000000
    20  C    0.000000   4.352647   0.000000   0.000000   0.000000   0.000000
    21  H    0.000000   0.000000   0.794884   0.000000   0.000000   0.000000
    22  H    0.000000   0.000000   0.000000   0.794920   0.000000   0.000000
    23  H    0.000000   0.000000   0.000000   0.000000   0.801029   0.000000
    24  N    0.000000   0.000000   0.000000   0.000000   0.000000   4.992109
    25  N    0.000000   0.000000   0.000000   0.000000   0.000000   0.000000
             25
     1  C    0.000000
     2  C    0.000000
     3  C    0.000000
     4  H    0.000000
     5  H    0.000000
     6  H    0.000000
     7  C    0.000000
     8  H    0.000000
     9  H    0.000000
    10  C    0.000000
    11  H    0.000000
    12  H    0.000000
    13  C    0.000000
    14  H    0.000000
    15  H    0.000000
    16  C    0.000000
    17  H    0.000000
    18  H    0.000000
    19  H    0.000000
    20  C    0.000000
    21  H    0.000000
    22  H    0.000000
    23  H    0.000000
    24  N    0.000000
    25  N    4.943905
 Mulliken atomic charges:
              1
     1  C   -0.112043
     2  C   -0.077544
     3  C   -0.131111
     4  H    0.237927
     5  H    0.226142
     6  H    0.224911
     7  C   -0.147904
     8  H    0.176316
     9  H    0.181542
    10  C   -0.294594
    11  H    0.159801
    12  H    0.155681
    13  C   -0.211544
    14  H    0.137532
    15  H    0.138816
    16  C   -0.465044
    17  H    0.156324
    18  H    0.166932
    19  H    0.157354
    20  C   -0.352647
    21  H    0.205116
    22  H    0.205080
    23  H    0.198971
    24  N    0.007891
    25  N    0.056095
 Sum of Mulliken atomic charges =   1.00000
 Mulliken charges with hydrogens summed into heavy atoms:
              1
     1  C    0.112868
     2  C    0.160383
     3  C    0.095031
     7  C    0.209953
    10  C    0.020888
    13  C    0.064804
    16  C    0.015566
    20  C    0.256520
    24  N    0.007891
    25  N    0.056095
 Sum of Mulliken charges with hydrogens summed into heavy atoms =   1.00000
 Charge=              1.0000 electrons
 Dipole moment (field-independent basis, Debye):
    X=              5.9645    Y=             -0.5371    Z=              0.6499  Tot=              6.0238
 N-N= 3.136514832868D+02 E-N=-4.872135014472D+02  KE=-9.382543845868D+01
 1\1\GINC-D-173-250-154-13\FOpt\RPM6\ZDO\C8H15N2(1+)\JPFAENDT\02-Mar-20
 17\0\\# PM6 OPT\\Title Card Required\\1,1\C,-1.7438176114,1.2669636861
 ,1.0249255357\C,0.2981341411,2.1371008847,0.6149590768\C,-1.9107726329
 ,2.3937553873,0.2191900684\H,1.3765765341,2.2900231713,0.611846035\H,-
 2.8282951147,2.8234247073,-0.1707244888\H,-2.4997235944,0.5946911251,1
 .4195017512\C,0.261947894,0.0330324895,2.0535269984\H,1.1762159693,0.4
 278986379,2.5599896184\H,-0.4374905257,-0.2788556294,2.8690681499\C,0.
 608018324,-1.1576955707,1.1499922126\H,-0.3002389477,-1.5455606173,0.6
 441132947\H,1.2966532298,-0.8509194109,0.3370292344\C,1.254980996,-2.2
 827905762,1.9738237739\H,2.1706793882,-1.9137522071,2.479137664\H,0.57
 04705273,-2.6104897967,2.7829267903\C,1.6060717228,-3.4751572424,1.091
 5630456\H,2.3216987276,-3.2141406459,0.3025603213\H,2.0673578127,-4.27
 94989674,1.6830258979\H,0.7230431852,-3.9086483606,0.6061158675\C,-0.3
 538286684,4.1170138735,-0.8278113076\H,-0.7599986524,4.013345364,-1.85
 74942978\H,-0.8144812606,5.0211404688,-0.3730820053\H,0.7335769676,4.3
 09277437,-0.9194866639\N,-0.3747445413,1.121287844,1.2700580663\N,-0.6
 397848402,2.9225439282,-0.027456819\\Version=IA32M-G09RevA.02\State=1-
 A\HF=0.2354485\RMSD=3.544e-09\RMSF=1.114e-06\Dipole=-0.5020473,2.26360
 61,-0.4905685\PG=C01 [X(C8H15N2)]\\@


 Age does not diminish the extreme disappointment of
 having a scoop of ice cream fall from the cone.
 -- Jim Fiebig
 Job cpu time:  0 days  0 hours  0 minutes 20.3 seconds.
 File lengths (MBytes):  RWF=      5 Int=      0 D2E=      0 Chk=      2 Scr=      1
 Normal termination of Gaussian 09 at Thu Mar  2 15:24:24 2017.
