 Entering Gaussian System, Link 0=g09
 Input=HMI_TF2_3.com
 Output=HMI_TF2_3.log
 Initial command:
 /gscratch/pfaendtner/codes/G09/g09/l1.exe /gscratch/pfaendtner/wesley/gaussian/Gau-23455.inp -scrdir=/gscratch/pfaendtner/wesley/gaussian/
 Entering Link 1 = /gscratch/pfaendtner/codes/G09/g09/l1.exe PID=     23462.
  
 Copyright (c) 1988,1990,1992,1993,1995,1998,2003,2009, Gaussian, Inc.
                  All Rights Reserved.
  
 This is part of the Gaussian(R) 09 program.  It is based on
 the Gaussian(R) 03 system (copyright 2003, Gaussian, Inc.),
 the Gaussian(R) 98 system (copyright 1998, Gaussian, Inc.),
 the Gaussian(R) 94 system (copyright 1995, Gaussian, Inc.),
 the Gaussian 92(TM) system (copyright 1992, Gaussian, Inc.),
 the Gaussian 90(TM) system (copyright 1990, Gaussian, Inc.),
 the Gaussian 88(TM) system (copyright 1988, Gaussian, Inc.),
 the Gaussian 86(TM) system (copyright 1986, Carnegie Mellon
 University), and the Gaussian 82(TM) system (copyright 1983,
 Carnegie Mellon University). Gaussian is a federally registered
 trademark of Gaussian, Inc.
  
 This software contains proprietary and confidential information,
 including trade secrets, belonging to Gaussian, Inc.
  
 This software is provided under written license and may be
 used, copied, transmitted, or stored only in accord with that
 written license.
  
 The following legend is applicable only to US Government
 contracts under FAR:
  
                    RESTRICTED RIGHTS LEGEND
  
 Use, reproduction and disclosure by the US Government is
 subject to restrictions as set forth in subparagraphs (a)
 and (c) of the Commercial Computer Software - Restricted
 Rights clause in FAR 52.227-19.
  
 Gaussian, Inc.
 340 Quinnipiac St., Bldg. 40, Wallingford CT 06492
  
  
 ---------------------------------------------------------------
 Warning -- This program may not be used in any manner that
 competes with the business of Gaussian, Inc. or will provide
 assistance to any competitor of Gaussian, Inc.  The licensee
 of this program is prohibited from giving any competitor of
 Gaussian, Inc. access to this program.  By using this program,
 the user acknowledges that Gaussian, Inc. is engaged in the
 business of creating and licensing software in the field of
 computational chemistry and represents and warrants to the
 licensee that it is not a competitor of Gaussian, Inc. and that
 it will not use this program in any manner prohibited above.
 ---------------------------------------------------------------
  

 Cite this work as:
 Gaussian 09, Revision A.02,
 M. J. Frisch, G. W. Trucks, H. B. Schlegel, G. E. Scuseria, 
 M. A. Robb, J. R. Cheeseman, G. Scalmani, V. Barone, B. Mennucci, 
 G. A. Petersson, H. Nakatsuji, M. Caricato, X. Li, H. P. Hratchian, 
 A. F. Izmaylov, J. Bloino, G. Zheng, J. L. Sonnenberg, M. Hada, 
 M. Ehara, K. Toyota, R. Fukuda, J. Hasegawa, M. Ishida, T. Nakajima, 
 Y. Honda, O. Kitao, H. Nakai, T. Vreven, J. A. Montgomery, Jr., 
 J. E. Peralta, F. Ogliaro, M. Bearpark, J. J. Heyd, E. Brothers, 
 K. N. Kudin, V. N. Staroverov, R. Kobayashi, J. Normand, 
 K. Raghavachari, A. Rendell, J. C. Burant, S. S. Iyengar, J. Tomasi, 
 M. Cossi, N. Rega, J. M. Millam, M. Klene, J. E. Knox, J. B. Cross, 
 V. Bakken, C. Adamo, J. Jaramillo, R. Gomperts, R. E. Stratmann, 
 O. Yazyev, A. J. Austin, R. Cammi, C. Pomelli, J. W. Ochterski, 
 R. L. Martin, K. Morokuma, V. G. Zakrzewski, G. A. Voth, 
 P. Salvador, J. J. Dannenberg, S. Dapprich, A. D. Daniels, 
 O. Farkas, J. B. Foresman, J. V. Ortiz, J. Cioslowski, 
 and D. J. Fox, Gaussian, Inc., Wallingford CT, 2009.
 
 ******************************************
 Gaussian 09:  EM64L-G09RevA.02 11-Jun-2009
                13-Mar-2017 
 ******************************************
 %chk=HMI_TF2_3.chk
 %nprocshared=16
 Will use up to   16 processors via shared memory.
 --------------------------------------
 # opt M062X/6-311+G* geom=connectivity
 --------------------------------------
 1/14=-1,18=20,19=15,26=3,38=1,57=2/1,3;
 2/9=110,12=2,17=6,18=5,40=1/2;
 3/5=4,6=6,7=11,11=2,16=1,25=1,30=1,71=1,74=-55/1,2,3;
 4//1;
 5/5=2,38=5/2;
 6/7=2,8=2,9=2,10=2,28=1/1;
 7//1,2,3,16;
 1/14=-1,18=20,19=15/3(2);
 2/9=110/2;
 99//99;
 2/9=110/2;
 3/5=4,6=6,7=11,11=2,16=1,25=1,30=1,71=1,74=-55/1,2,3;
 4/5=5,16=3/1;
 5/5=2,38=5/2;
 7//1,2,3,16;
 1/14=-1,18=20,19=15/3(-5);
 2/9=110/2;
 6/7=2,8=2,9=2,10=2,19=2,28=1/1;
 99/9=1/99;
 -------------------
 Title Card Required
 -------------------
 Symbolic Z-matrix:
 Charge =  0 Multiplicity = 1
 C(PDBName=C1,ResName=HMI,ResNum=1)  0.035    -0.965    -0.211 
 C(PDBName=C2,ResName=HMI,ResNum=1)  1.374    -0.982    -0.135 
 C(PDBName=C3,ResName=HMI,ResNum=1)  0.709     1.075     0.137 
 N(PDBName=N1,ResName=HMI,ResNum=1) -0.367     0.341    -0.034 
 H(PDBName=H1,ResName=HMI,ResNum=1) -0.664    -1.756    -0.367 
 H(PDBName=H2,ResName=HMI,ResNum=1)  2.07     -1.789    -0.213 
 H(PDBName=H3,ResName=HMI,ResNum=1)  0.712     2.132     0.3 
 N(PDBName=N2,ResName=HMI,ResNum=1)  1.782     0.316     0.084 
 C(PDBName=C4,ResName=HMI,ResNum=1) -1.76      0.832    -0.07 
 H(PDBName=H4,ResName=HMI,ResNum=1) -1.76      1.806     0.398 
 H(PDBName=H5,ResName=HMI,ResNum=1) -2.342     0.168     0.555 
 C(PDBName=C5,ResName=HMI,ResNum=1) -2.314     0.899    -1.491 
 H(PDBName=H6,ResName=HMI,ResNum=1) -2.264    -0.087    -1.945 
 H(PDBName=H7,ResName=HMI,ResNum=1) -1.684     1.553    -2.088 
 C(PDBName=C6,ResName=HMI,ResNum=1) -3.759     1.404    -1.506 
 H(PDBName=H8,ResName=HMI,ResNum=1) -4.378     0.749    -0.897 
 H(PDBName=H9,ResName=HMI,ResNum=1) -3.803     2.388    -1.044 
 C(PDBName=C7,ResName=HMI,ResNum=1) -4.339     1.481    -2.92 
 H(PDBName=H10,ResName=HMI,ResNum=1) -3.718     2.136    -3.529 
 H(PDBName=H11,ResName=HMI,ResNum=1) -4.293     0.497    -3.382 
 C(PDBName=C8,ResName=HMI,ResNum=1) -5.783     1.986    -2.945 
 H(PDBName=H12,ResName=HMI,ResNum=1) -6.403     1.332    -2.336 
 H(PDBName=H13,ResName=HMI,ResNum=1) -5.829     2.97     -2.483 
 C(PDBName=C9,ResName=HMI,ResNum=1) -6.359     2.061    -4.359 
 H(PDBName=H14,ResName=HMI,ResNum=1) -7.381     2.422    -4.343 
 H(PDBName=H15,ResName=HMI,ResNum=1) -5.78      2.735    -4.983 
 H(PDBName=H16,ResName=HMI,ResNum=1) -6.359     1.086    -4.835 
 C(PDBName=C10,ResName=HMI,ResNum=1)  3.17      0.761     0.238 
 H(PDBName=H17,ResName=HMI,ResNum=1)  3.612     0.267     1.091 
 H(PDBName=H18,ResName=HMI,ResNum=1)  3.723     0.523    -0.658 
 H(PDBName=H19,ResName=HMI,ResNum=1)  3.18      1.828     0.395 
 N                     0.71678  -3.10126   0.81947 
 S                    -0.24322  -4.00326  -0.05253 
 S                     0.28478  -2.24626   2.06147 
 O                    -0.91922  -5.04326   0.66447 
 O                    -0.98622  -3.28326  -1.04453 
 O                     1.12678  -1.09626   2.18747 
 O                    -1.13022  -2.09026   2.21747 
 C                     1.05178  -4.86326  -0.99253 
 C                     0.78378  -3.27726   3.47547 
 F                     0.47178  -5.70326  -1.82853 
 F                     1.78278  -4.03226  -1.69753 
 F                     1.84478  -5.55526  -0.20753 
 F                     2.07478  -3.52526   3.44947 
 F                     0.14478  -4.42126   3.49047 
 F                     0.51478  -2.64126   4.59847 
 

 GradGradGradGradGradGradGradGradGradGradGradGradGradGradGradGradGradGrad
 Berny optimization.
 Initialization pass.
                           ----------------------------
                           !    Initial Parameters    !
                           ! (Angstroms and Degrees)  !
 --------------------------                            --------------------------
 ! Name  Definition              Value          Derivative Info.                !
 --------------------------------------------------------------------------------
 ! R1    R(1,2)                  1.3413         estimate D2E/DX2                !
 ! R2    R(1,4)                  1.3779         estimate D2E/DX2                !
 ! R3    R(1,5)                  1.0671         estimate D2E/DX2                !
 ! R4    R(2,6)                  1.0685         estimate D2E/DX2                !
 ! R5    R(2,8)                  1.3781         estimate D2E/DX2                !
 ! R6    R(3,4)                  1.3137         estimate D2E/DX2                !
 ! R7    R(3,7)                  1.0695         estimate D2E/DX2                !
 ! R8    R(3,8)                  1.3154         estimate D2E/DX2                !
 ! R9    R(4,9)                  1.4774         estimate D2E/DX2                !
 ! R10   R(5,36)                 1.7016         estimate D2E/DX2                !
 ! R11   R(6,32)                 2.1492         estimate D2E/DX2                !
 ! R12   R(8,28)                 1.4657         estimate D2E/DX2                !
 ! R13   R(9,10)                 1.0806         estimate D2E/DX2                !
 ! R14   R(9,11)                 1.0818         estimate D2E/DX2                !
 ! R15   R(9,12)                 1.5266         estimate D2E/DX2                !
 ! R16   R(12,13)                1.0867         estimate D2E/DX2                !
 ! R17   R(12,14)                1.0867         estimate D2E/DX2                !
 ! R18   R(12,15)                1.5308         estimate D2E/DX2                !
 ! R19   R(15,16)                1.0877         estimate D2E/DX2                !
 ! R20   R(15,17)                1.088          estimate D2E/DX2                !
 ! R21   R(15,18)                1.5303         estimate D2E/DX2                !
 ! R22   R(18,19)                1.0888         estimate D2E/DX2                !
 ! R23   R(18,20)                1.088          estimate D2E/DX2                !
 ! R24   R(18,21)                1.53           estimate D2E/DX2                !
 ! R25   R(21,22)                1.0877         estimate D2E/DX2                !
 ! R26   R(21,23)                1.088          estimate D2E/DX2                !
 ! R27   R(21,24)                1.5287         estimate D2E/DX2                !
 ! R28   R(24,25)                1.084          estimate D2E/DX2                !
 ! R29   R(24,26)                1.0858         estimate D2E/DX2                !
 ! R30   R(24,27)                1.085          estimate D2E/DX2                !
 ! R31   R(28,29)                1.0803         estimate D2E/DX2                !
 ! R32   R(28,30)                1.0795         estimate D2E/DX2                !
 ! R33   R(28,31)                1.0785         estimate D2E/DX2                !
 ! R34   R(32,33)                1.5797         estimate D2E/DX2                !
 ! R35   R(32,34)                1.5685         estimate D2E/DX2                !
 ! R36   R(33,35)                1.4327         estimate D2E/DX2                !
 ! R37   R(33,36)                1.4334         estimate D2E/DX2                !
 ! R38   R(33,39)                1.8167         estimate D2E/DX2                !
 ! R39   R(34,37)                1.4309         estimate D2E/DX2                !
 ! R40   R(34,38)                1.4321         estimate D2E/DX2                !
 ! R41   R(34,40)                1.8197         estimate D2E/DX2                !
 ! R42   R(39,41)                1.3194         estimate D2E/DX2                !
 ! R43   R(39,42)                1.3122         estimate D2E/DX2                !
 ! R44   R(39,43)                1.313          estimate D2E/DX2                !
 ! R45   R(40,44)                1.3149         estimate D2E/DX2                !
 ! R46   R(40,45)                1.3105         estimate D2E/DX2                !
 ! R47   R(40,46)                1.3183         estimate D2E/DX2                !
 ! A1    A(2,1,4)              107.2171         estimate D2E/DX2                !
 ! A2    A(2,1,5)              130.7571         estimate D2E/DX2                !
 ! A3    A(4,1,5)              122.0242         estimate D2E/DX2                !
 ! A4    A(1,2,6)              130.9729         estimate D2E/DX2                !
 ! A5    A(1,2,8)              107.015          estimate D2E/DX2                !
 ! A6    A(6,2,8)              122.0119         estimate D2E/DX2                !
 ! A7    A(4,3,7)              125.0534         estimate D2E/DX2                !
 ! A8    A(4,3,8)              109.9072         estimate D2E/DX2                !
 ! A9    A(7,3,8)              125.0387         estimate D2E/DX2                !
 ! A10   A(1,4,3)              107.899          estimate D2E/DX2                !
 ! A11   A(1,4,9)              125.9402         estimate D2E/DX2                !
 ! A12   A(3,4,9)              126.1389         estimate D2E/DX2                !
 ! A13   A(1,5,36)             147.9521         estimate D2E/DX2                !
 ! A14   A(2,6,32)              90.9136         estimate D2E/DX2                !
 ! A15   A(2,8,3)              107.9612         estimate D2E/DX2                !
 ! A16   A(2,8,28)             125.6627         estimate D2E/DX2                !
 ! A17   A(3,8,28)             126.375          estimate D2E/DX2                !
 ! A18   A(4,9,10)             106.7978         estimate D2E/DX2                !
 ! A19   A(4,9,11)             106.8095         estimate D2E/DX2                !
 ! A20   A(4,9,12)             112.2973         estimate D2E/DX2                !
 ! A21   A(10,9,11)            107.6398         estimate D2E/DX2                !
 ! A22   A(10,9,12)            111.3192         estimate D2E/DX2                !
 ! A23   A(11,9,12)            111.6832         estimate D2E/DX2                !
 ! A24   A(9,12,13)            109.4124         estimate D2E/DX2                !
 ! A25   A(9,12,14)            109.1093         estimate D2E/DX2                !
 ! A26   A(9,12,15)            111.4785         estimate D2E/DX2                !
 ! A27   A(13,12,14)           106.8498         estimate D2E/DX2                !
 ! A28   A(13,12,15)           109.7966         estimate D2E/DX2                !
 ! A29   A(14,12,15)           110.0788         estimate D2E/DX2                !
 ! A30   A(12,15,16)           109.4545         estimate D2E/DX2                !
 ! A31   A(12,15,17)           109.4141         estimate D2E/DX2                !
 ! A32   A(12,15,18)           112.5466         estimate D2E/DX2                !
 ! A33   A(16,15,17)           106.4917         estimate D2E/DX2                !
 ! A34   A(16,15,18)           109.3881         estimate D2E/DX2                !
 ! A35   A(17,15,18)           109.3628         estimate D2E/DX2                !
 ! A36   A(15,18,19)           109.3247         estimate D2E/DX2                !
 ! A37   A(15,18,20)           109.3189         estimate D2E/DX2                !
 ! A38   A(15,18,21)           112.919          estimate D2E/DX2                !
 ! A39   A(19,18,20)           106.4056         estimate D2E/DX2                !
 ! A40   A(19,18,21)           109.3048         estimate D2E/DX2                !
 ! A41   A(20,18,21)           109.3585         estimate D2E/DX2                !
 ! A42   A(18,21,22)           109.2921         estimate D2E/DX2                !
 ! A43   A(18,21,23)           109.3585         estimate D2E/DX2                !
 ! A44   A(18,21,24)           112.7642         estimate D2E/DX2                !
 ! A45   A(22,21,23)           106.3764         estimate D2E/DX2                !
 ! A46   A(22,21,24)           109.4287         estimate D2E/DX2                !
 ! A47   A(23,21,24)           109.4187         estimate D2E/DX2                !
 ! A48   A(21,24,25)           110.9734         estimate D2E/DX2                !
 ! A49   A(21,24,26)           111.1692         estimate D2E/DX2                !
 ! A50   A(21,24,27)           111.2058         estimate D2E/DX2                !
 ! A51   A(25,24,26)           107.7291         estimate D2E/DX2                !
 ! A52   A(25,24,27)           107.8027         estimate D2E/DX2                !
 ! A53   A(26,24,27)           107.8001         estimate D2E/DX2                !
 ! A54   A(8,28,29)            109.3652         estimate D2E/DX2                !
 ! A55   A(8,28,30)            109.3281         estimate D2E/DX2                !
 ! A56   A(8,28,31)            108.9314         estimate D2E/DX2                !
 ! A57   A(29,28,30)           110.1803         estimate D2E/DX2                !
 ! A58   A(29,28,31)           109.4912         estimate D2E/DX2                !
 ! A59   A(30,28,31)           109.5236         estimate D2E/DX2                !
 ! A60   A(6,32,33)            117.7798         estimate D2E/DX2                !
 ! A61   A(6,32,34)            102.7665         estimate D2E/DX2                !
 ! A62   A(33,32,34)           125.5178         estimate D2E/DX2                !
 ! A63   A(32,33,35)           115.148          estimate D2E/DX2                !
 ! A64   A(32,33,36)           114.2183         estimate D2E/DX2                !
 ! A65   A(32,33,39)            97.0494         estimate D2E/DX2                !
 ! A66   A(35,33,36)           117.8009         estimate D2E/DX2                !
 ! A67   A(35,33,39)           104.5756         estimate D2E/DX2                !
 ! A68   A(36,33,39)           104.4304         estimate D2E/DX2                !
 ! A69   A(32,34,37)           110.2284         estimate D2E/DX2                !
 ! A70   A(32,34,38)           114.6938         estimate D2E/DX2                !
 ! A71   A(32,34,40)           103.3516         estimate D2E/DX2                !
 ! A72   A(37,34,38)           118.9662         estimate D2E/DX2                !
 ! A73   A(37,34,40)           103.0364         estimate D2E/DX2                !
 ! A74   A(38,34,40)           104.3603         estimate D2E/DX2                !
 ! A75   A(5,36,33)             94.4233         estimate D2E/DX2                !
 ! A76   A(33,39,41)           108.4138         estimate D2E/DX2                !
 ! A77   A(33,39,42)           112.0434         estimate D2E/DX2                !
 ! A78   A(33,39,43)           111.7574         estimate D2E/DX2                !
 ! A79   A(41,39,42)           107.9168         estimate D2E/DX2                !
 ! A80   A(41,39,43)           107.9854         estimate D2E/DX2                !
 ! A81   A(42,39,43)           108.5735         estimate D2E/DX2                !
 ! A82   A(34,40,44)           111.1457         estimate D2E/DX2                !
 ! A83   A(34,40,45)           111.7025         estimate D2E/DX2                !
 ! A84   A(34,40,46)           109.4286         estimate D2E/DX2                !
 ! A85   A(44,40,45)           108.321          estimate D2E/DX2                !
 ! A86   A(44,40,46)           107.9496         estimate D2E/DX2                !
 ! A87   A(45,40,46)           108.1741         estimate D2E/DX2                !
 ! D1    D(4,1,2,6)            179.6431         estimate D2E/DX2                !
 ! D2    D(4,1,2,8)             -0.1856         estimate D2E/DX2                !
 ! D3    D(5,1,2,6)              0.1001         estimate D2E/DX2                !
 ! D4    D(5,1,2,8)           -179.7285         estimate D2E/DX2                !
 ! D5    D(2,1,4,3)              0.2222         estimate D2E/DX2                !
 ! D6    D(2,1,4,9)            178.5991         estimate D2E/DX2                !
 ! D7    D(5,1,4,3)            179.8138         estimate D2E/DX2                !
 ! D8    D(5,1,4,9)             -1.8092         estimate D2E/DX2                !
 ! D9    D(2,1,5,36)           -28.5315         estimate D2E/DX2                !
 ! D10   D(4,1,5,36)           151.9835         estimate D2E/DX2                !
 ! D11   D(1,2,6,32)           -36.8543         estimate D2E/DX2                !
 ! D12   D(8,2,6,32)           142.9524         estimate D2E/DX2                !
 ! D13   D(1,2,8,3)              0.0853         estimate D2E/DX2                !
 ! D14   D(1,2,8,28)           179.7294         estimate D2E/DX2                !
 ! D15   D(6,2,8,3)           -179.7621         estimate D2E/DX2                !
 ! D16   D(6,2,8,28)            -0.118          estimate D2E/DX2                !
 ! D17   D(7,3,4,1)           -179.8896         estimate D2E/DX2                !
 ! D18   D(7,3,4,9)              1.7375         estimate D2E/DX2                !
 ! D19   D(8,3,4,1)             -0.1717         estimate D2E/DX2                !
 ! D20   D(8,3,4,9)           -178.5446         estimate D2E/DX2                !
 ! D21   D(4,3,8,2)              0.0557         estimate D2E/DX2                !
 ! D22   D(4,3,8,28)          -179.5853         estimate D2E/DX2                !
 ! D23   D(7,3,8,2)            179.7737         estimate D2E/DX2                !
 ! D24   D(7,3,8,28)             0.1327         estimate D2E/DX2                !
 ! D25   D(1,4,9,10)           162.7791         estimate D2E/DX2                !
 ! D26   D(1,4,9,11)            47.8268         estimate D2E/DX2                !
 ! D27   D(1,4,9,12)           -74.9278         estimate D2E/DX2                !
 ! D28   D(3,4,9,10)           -19.1335         estimate D2E/DX2                !
 ! D29   D(3,4,9,11)          -134.0858         estimate D2E/DX2                !
 ! D30   D(3,4,9,12)           103.1596         estimate D2E/DX2                !
 ! D31   D(1,5,36,33)           75.3557         estimate D2E/DX2                !
 ! D32   D(2,6,32,33)           94.4256         estimate D2E/DX2                !
 ! D33   D(2,6,32,34)          -48.0074         estimate D2E/DX2                !
 ! D34   D(2,8,28,29)          -60.5025         estimate D2E/DX2                !
 ! D35   D(2,8,28,30)           60.2134         estimate D2E/DX2                !
 ! D36   D(2,8,28,31)          179.8641         estimate D2E/DX2                !
 ! D37   D(3,8,28,29)          119.0771         estimate D2E/DX2                !
 ! D38   D(3,8,28,30)         -120.207          estimate D2E/DX2                !
 ! D39   D(3,8,28,31)           -0.5563         estimate D2E/DX2                !
 ! D40   D(4,9,12,13)           58.1212         estimate D2E/DX2                !
 ! D41   D(4,9,12,14)          -58.4527         estimate D2E/DX2                !
 ! D42   D(4,9,12,15)          179.7596         estimate D2E/DX2                !
 ! D43   D(10,9,12,13)         177.813          estimate D2E/DX2                !
 ! D44   D(10,9,12,14)          61.2391         estimate D2E/DX2                !
 ! D45   D(10,9,12,15)         -60.5487         estimate D2E/DX2                !
 ! D46   D(11,9,12,13)         -61.8399         estimate D2E/DX2                !
 ! D47   D(11,9,12,14)        -178.4138         estimate D2E/DX2                !
 ! D48   D(11,9,12,15)          59.7985         estimate D2E/DX2                !
 ! D49   D(9,12,15,16)         -58.1498         estimate D2E/DX2                !
 ! D50   D(9,12,15,17)          58.1906         estimate D2E/DX2                !
 ! D51   D(9,12,15,18)         179.99           estimate D2E/DX2                !
 ! D52   D(13,12,15,16)         63.2655         estimate D2E/DX2                !
 ! D53   D(13,12,15,17)        179.6059         estimate D2E/DX2                !
 ! D54   D(13,12,15,18)        -58.5947         estimate D2E/DX2                !
 ! D55   D(14,12,15,16)       -179.3745         estimate D2E/DX2                !
 ! D56   D(14,12,15,17)        -63.034          estimate D2E/DX2                !
 ! D57   D(14,12,15,18)         58.7653         estimate D2E/DX2                !
 ! D58   D(12,15,18,19)        -58.0397         estimate D2E/DX2                !
 ! D59   D(12,15,18,20)         58.0702         estimate D2E/DX2                !
 ! D60   D(12,15,18,21)       -179.9525         estimate D2E/DX2                !
 ! D61   D(16,15,18,19)       -179.9375         estimate D2E/DX2                !
 ! D62   D(16,15,18,20)        -63.8277         estimate D2E/DX2                !
 ! D63   D(16,15,18,21)         58.1496         estimate D2E/DX2                !
 ! D64   D(17,15,18,19)         63.7888         estimate D2E/DX2                !
 ! D65   D(17,15,18,20)        179.8986         estimate D2E/DX2                !
 ! D66   D(17,15,18,21)        -58.124          estimate D2E/DX2                !
 ! D67   D(15,18,21,22)        -58.0339         estimate D2E/DX2                !
 ! D68   D(15,18,21,23)         58.0449         estimate D2E/DX2                !
 ! D69   D(15,18,21,24)       -179.9773         estimate D2E/DX2                !
 ! D70   D(19,18,21,22)       -179.9579         estimate D2E/DX2                !
 ! D71   D(19,18,21,23)        -63.8791         estimate D2E/DX2                !
 ! D72   D(19,18,21,24)         58.0987         estimate D2E/DX2                !
 ! D73   D(20,18,21,22)         63.9213         estimate D2E/DX2                !
 ! D74   D(20,18,21,23)        180.0            estimate D2E/DX2                !
 ! D75   D(20,18,21,24)        -58.0221         estimate D2E/DX2                !
 ! D76   D(18,21,24,25)       -179.9708         estimate D2E/DX2                !
 ! D77   D(18,21,24,26)        -60.0917         estimate D2E/DX2                !
 ! D78   D(18,21,24,27)         60.0328         estimate D2E/DX2                !
 ! D79   D(22,21,24,25)         58.1629         estimate D2E/DX2                !
 ! D80   D(22,21,24,26)        178.042          estimate D2E/DX2                !
 ! D81   D(22,21,24,27)        -61.8335         estimate D2E/DX2                !
 ! D82   D(23,21,24,25)        -58.0269         estimate D2E/DX2                !
 ! D83   D(23,21,24,26)         61.8522         estimate D2E/DX2                !
 ! D84   D(23,21,24,27)       -178.0233         estimate D2E/DX2                !
 ! D85   D(6,32,33,35)         167.7462         estimate D2E/DX2                !
 ! D86   D(6,32,33,36)         -51.3467         estimate D2E/DX2                !
 ! D87   D(6,32,33,39)          57.9802         estimate D2E/DX2                !
 ! D88   D(34,32,33,35)        -59.186          estimate D2E/DX2                !
 ! D89   D(34,32,33,36)         81.7211         estimate D2E/DX2                !
 ! D90   D(34,32,33,39)       -168.9521         estimate D2E/DX2                !
 ! D91   D(6,32,34,37)         -11.936          estimate D2E/DX2                !
 ! D92   D(6,32,34,38)         125.5841         estimate D2E/DX2                !
 ! D93   D(6,32,34,40)        -121.4802         estimate D2E/DX2                !
 ! D94   D(33,32,34,37)       -150.4275         estimate D2E/DX2                !
 ! D95   D(33,32,34,38)        -12.9075         estimate D2E/DX2                !
 ! D96   D(33,32,34,40)        100.0283         estimate D2E/DX2                !
 ! D97   D(32,33,36,5)         -14.8298         estimate D2E/DX2                !
 ! D98   D(35,33,36,5)         124.9826         estimate D2E/DX2                !
 ! D99   D(39,33,36,5)        -119.5853         estimate D2E/DX2                !
 ! D100  D(32,33,39,41)       -179.7274         estimate D2E/DX2                !
 ! D101  D(32,33,39,42)        -60.7404         estimate D2E/DX2                !
 ! D102  D(32,33,39,43)         61.3733         estimate D2E/DX2                !
 ! D103  D(35,33,39,41)         61.94           estimate D2E/DX2                !
 ! D104  D(35,33,39,42)       -179.073          estimate D2E/DX2                !
 ! D105  D(35,33,39,43)        -56.9593         estimate D2E/DX2                !
 ! D106  D(36,33,39,41)        -62.429          estimate D2E/DX2                !
 ! D107  D(36,33,39,42)         56.558          estimate D2E/DX2                !
 ! D108  D(36,33,39,43)        178.6717         estimate D2E/DX2                !
 ! D109  D(32,34,40,44)         58.644          estimate D2E/DX2                !
 ! D110  D(32,34,40,45)        -62.4662         estimate D2E/DX2                !
 ! D111  D(32,34,40,46)        177.7749         estimate D2E/DX2                !
 ! D112  D(37,34,40,44)        -56.1731         estimate D2E/DX2                !
 ! D113  D(37,34,40,45)       -177.2833         estimate D2E/DX2                !
 ! D114  D(37,34,40,46)         62.9578         estimate D2E/DX2                !
 ! D115  D(38,34,40,44)        178.9081         estimate D2E/DX2                !
 ! D116  D(38,34,40,45)         57.7978         estimate D2E/DX2                !
 ! D117  D(38,34,40,46)        -61.9611         estimate D2E/DX2                !
 --------------------------------------------------------------------------------
 Trust Radius=3.00D-01 FncErr=1.00D-07 GrdErr=1.00D-06
 Number of steps in this run= 261 maximum allowed number of steps= 276.
 GradGradGradGradGradGradGradGradGradGradGradGradGradGradGradGradGradGrad

                          Input orientation:                          
 ---------------------------------------------------------------------
 Center     Atomic      Atomic             Coordinates (Angstroms)
 Number     Number       Type             X           Y           Z
 ---------------------------------------------------------------------
      1          6           0        0.035000   -0.965000   -0.211000
      2          6           0        1.374000   -0.982000   -0.135000
      3          6           0        0.709000    1.075000    0.137000
      4          7           0       -0.367000    0.341000   -0.034000
      5          1           0       -0.664000   -1.756000   -0.367000
      6          1           0        2.070000   -1.789000   -0.213000
      7          1           0        0.712000    2.132000    0.300000
      8          7           0        1.782000    0.316000    0.084000
      9          6           0       -1.760000    0.832000   -0.070000
     10          1           0       -1.760000    1.806000    0.398000
     11          1           0       -2.342000    0.168000    0.555000
     12          6           0       -2.314000    0.899000   -1.491000
     13          1           0       -2.264000   -0.087000   -1.945000
     14          1           0       -1.684000    1.553000   -2.088000
     15          6           0       -3.759000    1.404000   -1.506000
     16          1           0       -4.378000    0.749000   -0.897000
     17          1           0       -3.803000    2.388000   -1.044000
     18          6           0       -4.339000    1.481000   -2.920000
     19          1           0       -3.718000    2.136000   -3.529000
     20          1           0       -4.293000    0.497000   -3.382000
     21          6           0       -5.783000    1.986000   -2.945000
     22          1           0       -6.403000    1.332000   -2.336000
     23          1           0       -5.829000    2.970000   -2.483000
     24          6           0       -6.359000    2.061000   -4.359000
     25          1           0       -7.381000    2.422000   -4.343000
     26          1           0       -5.780000    2.735000   -4.983000
     27          1           0       -6.359000    1.086000   -4.835000
     28          6           0        3.170000    0.761000    0.238000
     29          1           0        3.612000    0.267000    1.091000
     30          1           0        3.723000    0.523000   -0.658000
     31          1           0        3.180000    1.828000    0.395000
     32          7           0        0.716775   -3.101260    0.819470
     33         16           0       -0.243225   -4.003260   -0.052530
     34         16           0        0.284775   -2.246260    2.061470
     35          8           0       -0.919225   -5.043260    0.664470
     36          8           0       -0.986225   -3.283260   -1.044530
     37          8           0        1.126775   -1.096260    2.187470
     38          8           0       -1.130225   -2.090260    2.217470
     39          6           0        1.051775   -4.863260   -0.992530
     40          6           0        0.783775   -3.277260    3.475470
     41          9           0        0.471775   -5.703260   -1.828530
     42          9           0        1.782775   -4.032260   -1.697530
     43          9           0        1.844775   -5.555260   -0.207530
     44          9           0        2.074775   -3.525260    3.449470
     45          9           0        0.144775   -4.421260    3.490470
     46          9           0        0.514775   -2.641260    4.598470
 ---------------------------------------------------------------------
                    Distance matrix (angstroms):
                    1          2          3          4          5
     1  C    0.000000
     2  C    1.341263   0.000000
     3  C    2.176460   2.178866   0.000000
     4  N    1.377886   2.188975   1.313687   0.000000
     5  H    1.067060   2.192338   3.186488   2.143947   0.000000
     6  H    2.195497   1.068527   3.190191   3.241591   2.738533
     7  H    3.211053   3.213171   1.069498   2.117422   4.177895
     8  N    2.186320   1.378125   1.315378   2.152382   3.237206
     9  C    2.543839   3.621709   2.489550   1.477439   2.826158
    10  H    3.357283   4.228355   2.588135   2.067196   3.804509
    11  H    2.742366   3.950602   3.210292   2.068206   2.714322
    12  C    3.260475   4.356402   3.438007   2.494999   3.321882
    13  H    3.010488   4.160789   3.810997   2.726484   2.799222
    14  H    3.580281   4.426262   3.302356   2.724399   3.866746
    15  C    4.656568   5.824116   4.771867   3.847391   4.567488
    16  H    4.783614   6.054957   5.201250   4.123027   4.511067
    17  H    5.163985   6.243758   4.845294   4.125095   5.242555
    18  C    5.696795   6.816228   5.915437   5.040375   5.522826
    19  H    5.891548   6.868015   5.844964   5.163938   5.871356
    20  H    5.560959   6.696666   6.143081   5.162065   5.228372
    21  C    7.073350   8.241831   7.243943   6.364982   6.844911
    22  H    7.158190   8.407183   7.534077   6.535639   6.807997
    23  H    7.418403   8.544859   7.293893   6.537789   7.313669
    24  C    8.200355   9.322087   8.434621   7.587364   7.933384
    25  H    9.140145  10.292935   9.345208   8.490833   8.853381
    26  H    8.383091   9.407386   8.430725   7.715206   8.224962
    27  H    8.152988   9.282560   8.641616   7.714188   7.776440
    28  C    3.606786   2.530374   2.483006   3.572220   4.626107
    29  H    4.000995   2.841077   3.160758   4.135643   4.949997
    30  H    4.001912   2.838372   3.165584   4.141328   4.952201
    31  H    4.249601   3.382105   2.596038   3.869938   5.310559
    32  N    2.467852   2.415413   4.231664   3.708387   2.263620
    33  S    3.055086   3.427861   5.170240   4.346063   2.307839
    34  S    2.620713   2.758486   3.861907   3.392598   2.652922
    35  O    4.278925   4.732005   6.353145   5.457387   3.454729
    36  O    2.666834   3.419606   4.823301   3.813119   1.701588
    37  O    2.638534   2.338384   3.015516   3.038422   3.188644
    38  O    2.919148   3.610193   4.210698   3.400391   2.647372
    39  C    4.103786   3.987903   6.054442   5.478689   3.604198
    40  C    4.415572   4.318805   5.485722   5.170345   4.378911
    41  F    5.025763   5.096308   7.061473   6.360579   4.359693
    42  F    3.830480   3.451476   5.531962   5.149201   3.596996
    43  F    4.934145   4.598000   6.735654   6.299837   4.555630
    44  F    4.910668   4.450582   5.830969   5.748461   5.019623
    45  F    5.065438   5.146216   6.463203   5.946674   4.757920
    46  F    5.115763   5.088924   5.809736   5.579532   5.179680
                    6          7          8          9         10
     6  H    0.000000
     7  H    4.181097   0.000000
     8  N    2.145269   2.118823   0.000000
     9  C    4.643166   2.817390   3.582700   0.000000
    10  H    5.288312   2.495328   3.855445   1.080602   0.000000
    11  H    4.887271   3.639950   4.153447   1.081779   1.745399
    12  C    5.298876   3.726211   4.426932   1.526645   2.167461
    13  H    4.967915   4.338267   4.544157   2.148069   3.054032
    14  H    5.364430   3.431997   4.273278   2.144281   2.499996
    15  C    6.770845   4.876624   5.866389   2.526911   2.789771
    16  H    6.963189   5.408660   6.252635   2.746769   3.106155
    17  H    7.254655   4.717743   6.062821   2.746573   2.567477
    18  C    7.687394   6.025347   6.917216   3.898069   4.214972
    19  H    7.739666   5.855438   6.827603   4.183164   4.400454
    20  H    7.467002   6.424980   6.996538   4.183020   4.734762
    21  C    9.131487   7.261981   8.318231   5.077585   5.233792
    22  H    9.275748   7.629661   8.595515   5.190588   5.408963
    23  H    9.497114   7.157654   8.459345   5.191375   5.119748
    24  C   10.151840   8.468197   9.437222   6.407555   6.621546
    25  H   11.140504   9.334784  10.392023   7.237560   7.379172
    26  H   10.239237   8.391648   9.418593   6.627170   6.780752
    27  H   10.033770   8.801215   9.542816   6.627258   7.003820
    28  C    2.813521   2.815182   1.465703   4.940122   5.042075
    29  H    2.881895   3.537500   2.089342   5.524991   5.630911
    30  H    2.876765   3.545810   2.088275   5.523089   5.729268
    31  H    3.832030   2.488466   2.082611   5.060814   4.940050
    32  N    2.149241   5.258982   3.654215   4.732453   5.513008
    33  S    3.206198   6.219176   4.772440   5.067609   6.020888
    34  S    2.927341   4.738614   3.566125   4.266141   4.834155
    35  O    4.505067   7.367367   6.029530   5.980388   6.905815
    36  O    3.502109   5.832390   4.678816   4.299280   5.346045
    37  O    2.670546   3.762479   2.616942   4.140994   4.467526
    38  O    4.029811   4.989786   4.338529   3.764139   4.346025
    39  C    3.330995   7.121780   5.340120   6.418188   7.370121
    40  C    4.180204   6.272867   5.040837   5.993928   6.463834
    41  F    4.526113   8.122786   6.450268   7.126211   8.144154
    42  F    2.705281   6.567708   4.699066   6.233871   7.143374
    43  F    3.772993   7.786831   5.878829   7.335558   8.218834
    44  F    4.053185   6.616715   5.115407   6.788070   7.241499
    45  F    4.934671   7.310682   6.060213   6.625848   7.209044
    46  F    5.127896   6.426489   5.543617   6.247620   6.526613
                   11         12         13         14         15
    11  H    0.000000
    12  C    2.172846   0.000000
    13  H    2.514182   1.086652   0.000000
    14  H    3.055591   1.086750   1.745408   0.000000
    15  C    2.789858   1.530776   2.156578   2.160220   0.000000
    16  H    2.567326   2.153005   2.503237   3.053282   1.087689
    17  H    3.101568   2.152685   3.050565   2.505458   1.087950
    18  C    4.217535   2.545857   2.777566   2.783241   1.530270
    19  H    4.737664   2.766736   3.092717   2.559986   2.151751
    20  H    4.406201   2.766573   2.553990   3.097814   2.151088
    21  C    5.234081   3.915309   4.204841   4.209957   2.550690
    22  H    5.119033   4.197789   4.392922   4.730677   2.772151
    23  H    5.407385   4.198610   4.726935   4.398288   2.773407
    24  C    6.623227   5.092906   5.216352   5.222177   3.915515
    25  H    7.379867   6.010651   6.182975   6.188376   4.712088
    26  H    7.005625   5.251487   5.436486   5.153190   4.236217
    27  H    6.784623   5.251603   5.147529   5.442400   4.235961
    28  C    5.552863   5.751760   5.917174   5.440483   7.173983
    29  H    5.978897   6.494892   6.623442   6.309315   7.897393
    30  H    6.195290   6.105787   6.154075   5.686954   7.581266
    31  H    5.768335   5.882523   6.227356   5.468035   7.207170
    32  N    4.484876   5.525030   5.060937   5.989929   6.762969
    33  S    4.708860   5.512664   4.796047   6.090238   6.611484
    34  S    3.872732   5.409837   5.216365   5.960584   6.511786
    35  O    5.403102   6.473168   5.760406   7.188298   7.371732
    36  O    4.038295   4.410626   3.558038   4.996512   5.465496
    37  O    4.036795   5.417669   5.439970   5.761830   6.615423
    38  O    3.054823   4.908131   4.756538   5.667194   5.743217
    39  C    6.263078   6.691828   5.891878   7.060660   7.917434
    40  C    5.492671   7.190493   6.989148   7.770040   8.207682
    41  F    6.933271   7.173863   6.248233   7.574167   8.277478
    42  F    6.303162   6.414324   5.657094   6.585297   7.765365
    43  F    7.132058   7.784612   7.057103   8.155721   9.028822
    44  F    6.444070   7.952589   7.729613   8.401232   9.104242
    45  F    5.988518   7.691930   7.357469   8.375890   8.610333
    46  F    5.692342   7.590590   7.553995   8.193614   8.479024
                   16         17         18         19         20
    16  H    0.000000
    17  H    1.743145   0.000000
    18  C    2.151714   2.151586   0.000000
    19  H    3.047424   2.499191   1.088828   0.000000
    20  H    2.499191   3.046674   1.088033   1.743145   0.000000
    21  C    2.774617   2.774131   1.529963   2.151228   2.151323
    22  H    2.551712   3.089401   2.150198   3.046127   2.498688
    23  H    3.090896   2.552278   2.151323   2.499198   3.046839
    24  C    4.198946   4.198725   2.547061   2.769369   2.769293
    25  H    4.867428   4.866892   3.487718   3.763238   3.763627
    26  H    4.754492   4.420934   2.811577   2.593214   3.127781
    27  H    4.421060   4.753948   2.811343   3.127781   2.593547
    28  C    7.632868   7.274159   8.177802   7.970286   8.298823
    29  H    8.247701   8.002443   8.987787   8.863772   9.085684
    30  H    8.107675   7.763240   8.427945   8.137130   8.466233
    31  H    7.743182   7.151686   8.224658   7.941980   8.478385
    32  N    6.612678   7.350705   7.780849   8.124366   7.463088
    33  S    6.355586   7.382630   7.421245   7.864504   6.909298
    34  S    6.282166   6.915940   7.751568   8.153513   7.623180
    35  O    6.924709   8.152218   8.192024   8.772691   7.645310
    36  O    5.271151   6.332252   6.120185   6.557711   5.539756
    37  O    6.574305   6.847273   7.912220   8.160722   7.932934
    38  O    5.320655   6.151076   7.031624   7.588134   6.931892
    39  C    7.809549   8.726527   8.545481   8.841611   7.937795
    40  C    7.872305   8.576671   9.475542   9.931363   9.329715
    41  F    8.125253   9.184644   8.714842   9.049852   7.972426
    42  F    7.839417   8.535088   8.328662   8.465238   7.763162
    43  F    8.884931   9.782251   9.752207  10.056447   9.185826
    44  F    8.876903   9.471334  10.332923  10.691359  10.168388
    45  F    8.150888   9.083632   9.799747  10.353340   9.545364
    46  F    8.101439   8.704833   9.852896  10.334136   9.831138
                   21         22         23         24         25
    21  C    0.000000
    22  H    1.087657   0.000000
    23  H    1.088033   1.741875   0.000000
    24  C    1.528659   2.150792   2.150943   0.000000
    25  H    2.167511   2.484478   2.483668   1.084002   0.000000
    26  H    2.171279   3.059926   2.511499   1.085768   1.752361
    27  H    2.171146   2.511464   3.059781   1.084989   1.752554
    28  C    9.580622   9.929443   9.657408  10.659468  11.621879
    29  H   10.368717  10.638552  10.450462  11.503990  12.450640
    30  H    9.886090  10.295924  10.027918  10.849404  11.852605
    31  H    9.566396   9.976887   9.526234  10.660550  11.590349
    32  N    9.071854   8.961138   9.519122  10.175072  11.078424
    33  S    8.656023   8.462982   9.259289   9.629312  10.518552
    34  S    8.932786   8.767441   9.232542  10.193855  11.026060
    35  O    9.278744   8.928525   9.910843  10.261429  11.070655
    36  O    7.374683   7.232564   8.038964   8.271248   9.182758
    37  O    9.142624   9.113493   9.312925  10.433666  11.287490
    38  O    8.057004   7.761966   8.353391   9.371393  10.122868
    39  C    9.871102   9.785696  10.532167  10.686351  11.636682
    40  C   10.585220  10.328030  10.874761  11.869928  12.659921
    41  F    9.974640   9.849617  10.740277  10.646432  11.576204
    42  F    9.747646   9.807643  10.372451  10.511886  11.516543
    43  F   11.070109  10.954019  11.693787  11.939182  12.878421
    44  F   11.532904  11.355057  11.825915  12.779166  13.619992
    45  F   10.844666  10.484327  11.224931  12.080272  12.838643
    46  F   10.861743  10.570208  11.039789  12.230957  12.958771
                   26         27         28         29         30
    26  H    0.000000
    27  H    1.753952   0.000000
    28  C   10.547892  10.800129   0.000000
    29  H   11.454002  11.627944   1.080282   0.000000
    30  H   10.672656  10.927535   1.079476   1.771118   0.000000
    31  H   10.489382  10.903944   1.078535   1.762884   1.762579
    32  N   10.485165   9.978616   4.612318   4.449858   4.935136
    33  S   10.018461   9.283065   5.867937   5.865624   6.048518
    34  S   10.546042  10.139280   4.548976   4.281205   5.185143
    35  O   10.771369   9.869304   7.112881   6.993768   7.367661
    36  O    8.643569   7.894607   5.939287   6.189387   6.067439
    37  O   10.667602  10.493530   3.380032   3.039254   4.178407
    38  O    9.836174   9.336276   5.526293   5.414269   6.217013
    39  C   10.969529  10.250750   6.134606   6.100444   6.021557
    40  C   12.279093  11.794965   5.699371   5.123118   6.337712
    41  F   10.965383  10.089223   7.303261   7.350420   7.120879
    42  F   10.667038  10.115771   5.352197   5.441103   5.059199
    43  F   12.233999  11.524832   6.469147   6.221574   6.377766
    44  F   13.114683  12.689552   5.466725   4.722995   5.998030
    45  F   12.574368  11.913961   6.825421   6.305465   7.379648
    46  F   12.662264  12.252821   6.135087   5.509367   6.923563
                   31         32         33         34         35
    31  H    0.000000
    32  N    5.526777   0.000000
    33  S    6.776603   1.579743   0.000000
    34  S    5.268685   1.568507   2.799076   0.000000
    35  O    8.005653   2.543990   1.432712   3.350289   0.000000
    36  O    6.749419   2.531369   1.433357   3.512555   2.454133
    37  O    3.997497   2.461615   3.917288   1.430853   4.699410
    38  O    6.103458   2.527436   3.098264   1.432095   3.343133
    39  C    7.157342   2.549552   1.816652   4.094373   2.581257
    40  C    6.426109   2.662668   3.745476   1.819714   3.731044
    41  F    8.306531   3.720529   2.560352   5.207487   2.930108
    42  F    6.377584   2.887630   2.609893   4.423108   3.728534
    43  F    7.527178   2.889503   2.606237   4.304816   2.943166
    44  F    6.261685   2.990124   4.226773   2.601247   4.361718
    45  F    7.605773   3.033781   3.588609   2.606198   3.083060
    46  F    6.689310   3.812249   4.905243   2.577847   4.827247
                   36         37         38         39         40
    36  O    0.000000
    37  O    4.437743   0.000000
    38  O    3.476295   2.466371   0.000000
    39  C    2.579253   4.930346   4.770194   0.000000
    40  C    4.854208   2.556043   2.579715   4.748710   0.000000
    41  F    2.932033   6.146684   5.655996   1.319430   5.840825
    42  F    2.941899   4.913620   5.252062   1.312230   5.322401
    43  F    3.725200   5.112165   5.170829   1.312988   4.458643
    44  F    5.442823   2.896789   3.721434   4.750593   1.314862
    45  F    4.810450   3.703749   2.946136   4.595139   1.310451
    46  F    5.874403   2.928223   2.945978   6.040276   1.318327
                   41         42         43         44         45
    41  F    0.000000
    42  F    2.127939   0.000000
    43  F    2.129477   2.131542   0.000000
    44  F    5.930479   5.180147   4.188968   0.000000
    45  F    5.481078   5.454329   4.225063   2.128238   0.000000
    46  F    7.119271   6.571326   5.775633   2.129614   2.129076
                   46
    46  F    0.000000
 Stoichiometry    C12H19F6N3O4S2
 Framework group  C1[X(C12H19F6N3O4S2)]
 Deg. of freedom   132
 Full point group                 C1      NOp   1
 Largest Abelian subgroup         C1      NOp   1
 Largest concise Abelian subgroup C1      NOp   1
                         Standard orientation:                         
 ---------------------------------------------------------------------
 Center     Atomic      Atomic             Coordinates (Angstroms)
 Number     Number       Type             X           Y           Z
 ---------------------------------------------------------------------
      1          6           0       -0.483827   -0.495151    0.763263
      2          6           0        0.384768   -0.886944    1.707205
      3          6           0       -1.166659   -2.408192    1.544925
      4          7           0       -1.454341   -1.469035    0.672575
      5          1           0       -0.497674    0.376514    0.147938
      6          1           0        1.274206   -0.424011    2.076450
      7          1           0       -1.741180   -3.296258    1.703330
      8          7           0       -0.063666   -2.097108    2.190566
      9          6           0       -2.630682   -1.440470   -0.220863
     10          1           0       -3.006441   -2.452195   -0.274885
     11          1           0       -2.269864   -1.171817   -1.204673
     12          6           0       -3.706501   -0.474225    0.268657
     13          1           0       -3.285797    0.524521    0.348203
     14          1           0       -4.017998   -0.765364    1.268273
     15          6           0       -4.913146   -0.455017   -0.673105
     16          1           0       -4.588418   -0.173404   -1.672261
     17          1           0       -5.325019   -1.458764   -0.753661
     18          6           0       -6.007689    0.506452   -0.204835
     19          1           0       -6.331191    0.224304    0.795808
     20          1           0       -5.594590    1.509664   -0.122792
     21          6           0       -7.218609    0.531501   -1.139625
     22          1           0       -6.895115    0.812636   -2.139281
     23          1           0       -7.631709   -0.471711   -1.221668
     24          6           0       -8.309459    1.493391   -0.668869
     25          1           0       -9.152249    1.487867   -1.350584
     26          1           0       -8.677834    1.217478    0.314525
     27          1           0       -7.936990    2.510748   -0.610109
     28          6           0        0.586353   -2.893939    3.234990
     29          1           0        1.580886   -3.165058    2.911870
     30          1           0        0.635123   -2.317108    4.146120
     31          1           0        0.006984   -3.787663    3.404774
     32          7           0        1.763736    0.285043    0.107480
     33         16           0        1.308785    1.746597   -0.282994
     34         16           0        1.575328   -0.995298   -0.778770
     35          8           0        1.890313    2.264385   -1.485651
     36          8           0       -0.078494    2.014692   -0.041968
     37          8           0        1.439362   -2.154407    0.049070
     38          8           0        0.687271   -0.828490   -1.889818
     39          6           0        2.176992    2.615426    1.055505
     40          6           0        3.212322   -1.224174   -1.539840
     41          9           0        1.934123    3.907176    0.940219
     42          9           0        1.764767    2.231350    2.240622
     43          9           0        3.476363    2.439545    0.987401
     44          9           0        4.145004   -1.368678   -0.624371
     45          9           0        3.537938   -0.209948   -2.303124
     46          9           0        3.201600   -2.312205   -2.284191
 ---------------------------------------------------------------------
 Rotational constants (GHZ):      0.2148809      0.0938377      0.0836196
 Standard basis: 6-311+G(d) (5D, 7F)
 There are   667 symmetry adapted basis functions of A   symmetry.
 Integral buffers will be    131072 words long.
 Raffenetti 2 integral format.
 Two-electron integral symmetry is turned on.
   667 basis functions,  1095 primitive gaussians,   694 cartesian basis functions
   115 alpha electrons      115 beta electrons
       nuclear repulsion energy      3492.4181546558 Hartrees.
 NAtoms=   46 NActive=   46 NUniq=   46 SFac= 7.50D-01 NAtFMM=   80 NAOKFM=F Big=F
 One-electron integrals computed using PRISM.
 PrsmSu:  requested number of processors reduced to:   8 ShMem   1 Linda.
 NBasis=   667 RedAO= T  NBF=   667
 NBsUse=   667 1.00D-06 NBFU=   667
 Harris functional with IExCor= 1009 diagonalized for initial guess.
 ExpMin= 4.05D-02 ExpMax= 9.34D+04 ExpMxC= 3.17D+03 IAcc=2 IRadAn=         0 AccDes= 0.00D+00
 HarFok:  IExCor= 1009 AccDes= 0.00D+00 IRadAn=         0 IDoV= 1
 ScaDFX=  1.000000  1.000000  1.000000  1.000000
 FoFCou: FMM=F IPFlag=           0 FMFlag=      100000 FMFlg1=           0
         NFxFlg=           0 DoJE=T BraDBF=F KetDBF=T FulRan=T
         Omega=  0.000000  0.000000  1.000000  0.000000  0.000000 ICntrl=     500 IOpCl=  0
         NMat0=    1 NMatS0=    1 NMatT0=    0 NMatD0=    1 NMtDS0=    0 NMtDT0=    0
         I1Cent=           4 NGrid=           0.
 Petite list used in FoFCou.
 Initial guess orbital symmetries:
       Occupied  (A) (A) (A) (A) (A) (A) (A) (A) (A) (A) (A) (A)
                 (A) (A) (A) (A) (A) (A) (A) (A) (A) (A) (A) (A)
                 (A) (A) (A) (A) (A) (A) (A) (A) (A) (A) (A) (A)
                 (A) (A) (A) (A) (A) (A) (A) (A) (A) (A) (A) (A)
                 (A) (A) (A) (A) (A) (A) (A) (A) (A) (A) (A) (A)
                 (A) (A) (A) (A) (A) (A) (A) (A) (A) (A) (A) (A)
                 (A) (A) (A) (A) (A) (A) (A) (A) (A) (A) (A) (A)
                 (A) (A) (A) (A) (A) (A) (A) (A) (A) (A) (A) (A)
                 (A) (A) (A) (A) (A) (A) (A) (A) (A) (A) (A) (A)
                 (A) (A) (A) (A) (A) (A) (A)
       Virtual   (A) (A) (A) (A) (A) (A) (A) (A) (A) (A) (A) (A)
                 (A) (A) (A) (A) (A) (A) (A) (A) (A) (A) (A) (A)
                 (A) (A) (A) (A) (A) (A) (A) (A) (A) (A) (A) (A)
                 (A) (A) (A) (A) (A) (A) (A) (A) (A) (A) (A) (A)
                 (A) (A) (A) (A) (A) (A) (A) (A) (A) (A) (A) (A)
                 (A) (A) (A) (A) (A) (A) (A) (A) (A) (A) (A) (A)
                 (A) (A) (A) (A) (A) (A) (A) (A) (A) (A) (A) (A)
                 (A) (A) (A) (A) (A) (A) (A) (A) (A) (A) (A) (A)
                 (A) (A) (A) (A) (A) (A) (A) (A) (A) (A) (A) (A)
                 (A) (A) (A) (A) (A) (A) (A) (A) (A) (A) (A) (A)
                 (A) (A) (A) (A) (A) (A) (A) (A) (A) (A) (A) (A)
                 (A) (A) (A) (A) (A) (A) (A) (A) (A) (A) (A) (A)
                 (A) (A) (A) (A) (A) (A) (A) (A) (A) (A) (A) (A)
                 (A) (A) (A) (A) (A) (A) (A) (A) (A) (A) (A) (A)
                 (A) (A) (A) (A) (A) (A) (A) (A) (A) (A) (A) (A)
                 (A) (A) (A) (A) (A) (A) (A) (A) (A) (A) (A) (A)
                 (A) (A) (A) (A) (A) (A) (A) (A) (A) (A) (A) (A)
                 (A) (A) (A) (A) (A) (A) (A) (A) (A) (A) (A) (A)
                 (A) (A) (A) (A) (A) (A) (A) (A) (A) (A) (A) (A)
                 (A) (A) (A) (A) (A) (A) (A) (A) (A) (A) (A) (A)
                 (A) (A) (A) (A) (A) (A) (A) (A) (A) (A) (A) (A)
                 (A) (A) (A) (A) (A) (A) (A) (A) (A) (A) (A) (A)
                 (A) (A) (A) (A) (A) (A) (A) (A) (A) (A) (A) (A)
                 (A) (A) (A) (A) (A) (A) (A) (A) (A) (A) (A) (A)
                 (A) (A) (A) (A) (A) (A) (A) (A) (A) (A) (A) (A)
                 (A) (A) (A) (A) (A) (A) (A) (A) (A) (A) (A) (A)
                 (A) (A) (A) (A) (A) (A) (A) (A) (A) (A) (A) (A)
                 (A) (A) (A) (A) (A) (A) (A) (A) (A) (A) (A) (A)
                 (A) (A) (A) (A) (A) (A) (A) (A) (A) (A) (A) (A)
                 (A) (A) (A) (A) (A) (A) (A) (A) (A) (A) (A) (A)
                 (A) (A) (A) (A) (A) (A) (A) (A) (A) (A) (A) (A)
                 (A) (A) (A) (A) (A) (A) (A) (A) (A) (A) (A) (A)
                 (A) (A) (A) (A) (A) (A) (A) (A) (A) (A) (A) (A)
                 (A) (A) (A) (A) (A) (A) (A) (A) (A) (A) (A) (A)
                 (A) (A) (A) (A) (A) (A) (A) (A) (A) (A) (A) (A)
                 (A) (A) (A) (A) (A) (A) (A) (A) (A) (A) (A) (A)
                 (A) (A) (A) (A) (A) (A) (A) (A) (A) (A) (A) (A)
                 (A) (A) (A) (A) (A) (A) (A) (A) (A) (A) (A) (A)
                 (A) (A) (A) (A) (A) (A) (A) (A) (A) (A) (A) (A)
                 (A) (A) (A) (A) (A) (A) (A) (A) (A) (A) (A) (A)
                 (A) (A) (A) (A) (A) (A) (A) (A) (A) (A) (A) (A)
                 (A) (A) (A) (A) (A) (A) (A) (A) (A) (A) (A) (A)
                 (A) (A) (A) (A) (A) (A) (A) (A) (A) (A) (A) (A)
                 (A) (A) (A) (A) (A) (A) (A) (A) (A) (A) (A) (A)
                 (A) (A) (A) (A) (A) (A) (A) (A) (A) (A) (A) (A)
                 (A) (A) (A) (A) (A) (A) (A) (A) (A) (A) (A) (A)
 The electronic state of the initial guess is 1-A.
 Requested convergence on RMS density matrix=1.00D-08 within 128 cycles.
 Requested convergence on MAX density matrix=1.00D-06.
 Requested convergence on             energy=1.00D-06.
 No special actions if energy rises.
 SCF Done:  E(RM062X) =  -2328.94521867     A.U. after   16 cycles
             Convg  =    0.2772D-08             -V/T =  2.0017

 **********************************************************************

            Population analysis using the SCF density.

 **********************************************************************

 Orbital symmetries:
       Occupied  (A) (A) (A) (A) (A) (A) (A) (A) (A) (A) (A) (A)
                 (A) (A) (A) (A) (A) (A) (A) (A) (A) (A) (A) (A)
                 (A) (A) (A) (A) (A) (A) (A) (A) (A) (A) (A) (A)
                 (A) (A) (A) (A) (A) (A) (A) (A) (A) (A) (A) (A)
                 (A) (A) (A) (A) (A) (A) (A) (A) (A) (A) (A) (A)
                 (A) (A) (A) (A) (A) (A) (A) (A) (A) (A) (A) (A)
                 (A) (A) (A) (A) (A) (A) (A) (A) (A) (A) (A) (A)
                 (A) (A) (A) (A) (A) (A) (A) (A) (A) (A) (A) (A)
                 (A) (A) (A) (A) (A) (A) (A) (A) (A) (A) (A) (A)
                 (A) (A) (A) (A) (A) (A) (A)
       Virtual   (A) (A) (A) (A) (A) (A) (A) (A) (A) (A) (A) (A)
                 (A) (A) (A) (A) (A) (A) (A) (A) (A) (A) (A) (A)
                 (A) (A) (A) (A) (A) (A) (A) (A) (A) (A) (A) (A)
                 (A) (A) (A) (A) (A) (A) (A) (A) (A) (A) (A) (A)
                 (A) (A) (A) (A) (A) (A) (A) (A) (A) (A) (A) (A)
                 (A) (A) (A) (A) (A) (A) (A) (A) (A) (A) (A) (A)
                 (A) (A) (A) (A) (A) (A) (A) (A) (A) (A) (A) (A)
                 (A) (A) (A) (A) (A) (A) (A) (A) (A) (A) (A) (A)
                 (A) (A) (A) (A) (A) (A) (A) (A) (A) (A) (A) (A)
                 (A) (A) (A) (A) (A) (A) (A) (A) (A) (A) (A) (A)
                 (A) (A) (A) (A) (A) (A) (A) (A) (A) (A) (A) (A)
                 (A) (A) (A) (A) (A) (A) (A) (A) (A) (A) (A) (A)
                 (A) (A) (A) (A) (A) (A) (A) (A) (A) (A) (A) (A)
                 (A) (A) (A) (A) (A) (A) (A) (A) (A) (A) (A) (A)
                 (A) (A) (A) (A) (A) (A) (A) (A) (A) (A) (A) (A)
                 (A) (A) (A) (A) (A) (A) (A) (A) (A) (A) (A) (A)
                 (A) (A) (A) (A) (A) (A) (A) (A) (A) (A) (A) (A)
                 (A) (A) (A) (A) (A) (A) (A) (A) (A) (A) (A) (A)
                 (A) (A) (A) (A) (A) (A) (A) (A) (A) (A) (A) (A)
                 (A) (A) (A) (A) (A) (A) (A) (A) (A) (A) (A) (A)
                 (A) (A) (A) (A) (A) (A) (A) (A) (A) (A) (A) (A)
                 (A) (A) (A) (A) (A) (A) (A) (A) (A) (A) (A) (A)
                 (A) (A) (A) (A) (A) (A) (A) (A) (A) (A) (A) (A)
                 (A) (A) (A) (A) (A) (A) (A) (A) (A) (A) (A) (A)
                 (A) (A) (A) (A) (A) (A) (A) (A) (A) (A) (A) (A)
                 (A) (A) (A) (A) (A) (A) (A) (A) (A) (A) (A) (A)
                 (A) (A) (A) (A) (A) (A) (A) (A) (A) (A) (A) (A)
                 (A) (A) (A) (A) (A) (A) (A) (A) (A) (A) (A) (A)
                 (A) (A) (A) (A) (A) (A) (A) (A) (A) (A) (A) (A)
                 (A) (A) (A) (A) (A) (A) (A) (A) (A) (A) (A) (A)
                 (A) (A) (A) (A) (A) (A) (A) (A) (A) (A) (A) (A)
                 (A) (A) (A) (A) (A) (A) (A) (A) (A) (A) (A) (A)
                 (A) (A) (A) (A) (A) (A) (A) (A) (A) (A) (A) (A)
                 (A) (A) (A) (A) (A) (A) (A) (A) (A) (A) (A) (A)
                 (A) (A) (A) (A) (A) (A) (A) (A) (A) (A) (A) (A)
                 (A) (A) (A) (A) (A) (A) (A) (A) (A) (A) (A) (A)
                 (A) (A) (A) (A) (A) (A) (A) (A) (A) (A) (A) (A)
                 (A) (A) (A) (A) (A) (A) (A) (A) (A) (A) (A) (A)
                 (A) (A) (A) (A) (A) (A) (A) (A) (A) (A) (A) (A)
                 (A) (A) (A) (A) (A) (A) (A) (A) (A) (A) (A) (A)
                 (A) (A) (A) (A) (A) (A) (A) (A) (A) (A) (A) (A)
                 (A) (A) (A) (A) (A) (A) (A) (A) (A) (A) (A) (A)
                 (A) (A) (A) (A) (A) (A) (A) (A) (A) (A) (A) (A)
                 (A) (A) (A) (A) (A) (A) (A) (A) (A) (A) (A) (A)
                 (A) (A) (A) (A) (A) (A) (A) (A) (A) (A) (A) (A)
                 (A) (A) (A) (A) (A) (A) (A) (A) (A) (A) (A) (A)
 The electronic state is 1-A.
 Alpha  occ. eigenvalues --  -90.12597 -90.12155 -25.29440 -25.28628 -25.28466
 Alpha  occ. eigenvalues --  -25.28290 -25.28156 -25.27902 -19.62602 -19.62539
 Alpha  occ. eigenvalues --  -19.62446 -19.61104 -14.86779 -14.86602 -14.74748
 Alpha  occ. eigenvalues --  -10.80894 -10.80291 -10.67008 -10.62716 -10.62262
 Alpha  occ. eigenvalues --  -10.60703 -10.59108 -10.56750 -10.55539 -10.54513
 Alpha  occ. eigenvalues --  -10.54082 -10.52889  -8.46756  -8.46294  -6.38994
 Alpha  occ. eigenvalues --   -6.38951  -6.38895  -6.38507  -6.38493  -6.38448
 Alpha  occ. eigenvalues --   -1.49606  -1.48890  -1.39797  -1.39088  -1.38815
 Alpha  occ. eigenvalues --   -1.38641  -1.28270  -1.26178  -1.22663  -1.15352
 Alpha  occ. eigenvalues --   -1.14359  -1.09798  -1.04537  -0.95126  -0.92612
 Alpha  occ. eigenvalues --   -0.90455  -0.87927  -0.87574  -0.84727  -0.83349
 Alpha  occ. eigenvalues --   -0.79617  -0.77757  -0.75646  -0.75302  -0.73166
 Alpha  occ. eigenvalues --   -0.71856  -0.71362  -0.70720  -0.70707  -0.70462
 Alpha  occ. eigenvalues --   -0.69909  -0.68405  -0.67070  -0.63428  -0.62379
 Alpha  occ. eigenvalues --   -0.61190  -0.59520  -0.59304  -0.58735  -0.58612
 Alpha  occ. eigenvalues --   -0.58399  -0.57806  -0.57629  -0.57437  -0.56447
 Alpha  occ. eigenvalues --   -0.55718  -0.55443  -0.55194  -0.54620  -0.54432
 Alpha  occ. eigenvalues --   -0.54029  -0.53862  -0.53714  -0.53548  -0.53432
 Alpha  occ. eigenvalues --   -0.52205  -0.52001  -0.51495  -0.51334  -0.49825
 Alpha  occ. eigenvalues --   -0.48813  -0.48335  -0.48035  -0.45367  -0.44276
 Alpha  occ. eigenvalues --   -0.43822  -0.43568  -0.42117  -0.41388  -0.40855
 Alpha  occ. eigenvalues --   -0.40766  -0.40513  -0.40266  -0.40110  -0.39121
 Alpha  occ. eigenvalues --   -0.38219  -0.37833  -0.36548  -0.35411  -0.30983
 Alpha virt. eigenvalues --   -0.02372  -0.01575  -0.00446   0.00898   0.01544
 Alpha virt. eigenvalues --    0.01578   0.02354   0.02487   0.02704   0.03233
 Alpha virt. eigenvalues --    0.03465   0.03736   0.04304   0.04571   0.04788
 Alpha virt. eigenvalues --    0.05142   0.05532   0.05912   0.06130   0.07002
 Alpha virt. eigenvalues --    0.07123   0.07405   0.07673   0.08031   0.08313
 Alpha virt. eigenvalues --    0.08471   0.08707   0.09116   0.09200   0.09797
 Alpha virt. eigenvalues --    0.10349   0.10514   0.10884   0.11016   0.11094
 Alpha virt. eigenvalues --    0.11340   0.12169   0.12248   0.12431   0.12820
 Alpha virt. eigenvalues --    0.13047   0.13354   0.13987   0.14103   0.14628
 Alpha virt. eigenvalues --    0.14870   0.15225   0.15671   0.15747   0.15967
 Alpha virt. eigenvalues --    0.16038   0.16671   0.16873   0.17013   0.17233
 Alpha virt. eigenvalues --    0.17956   0.18207   0.18562   0.19018   0.19193
 Alpha virt. eigenvalues --    0.19728   0.19979   0.20090   0.20278   0.20950
 Alpha virt. eigenvalues --    0.21115   0.21241   0.21395   0.21880   0.22247
 Alpha virt. eigenvalues --    0.22520   0.22748   0.23230   0.23642   0.23808
 Alpha virt. eigenvalues --    0.24050   0.24170   0.24653   0.24931   0.25578
 Alpha virt. eigenvalues --    0.25793   0.26021   0.26098   0.26316   0.26694
 Alpha virt. eigenvalues --    0.27064   0.27323   0.27786   0.28276   0.28583
 Alpha virt. eigenvalues --    0.28750   0.28977   0.29186   0.29456   0.29545
 Alpha virt. eigenvalues --    0.29858   0.30322   0.30425   0.30828   0.31010
 Alpha virt. eigenvalues --    0.31137   0.31690   0.32028   0.32320   0.32542
 Alpha virt. eigenvalues --    0.32718   0.33130   0.33393   0.33856   0.34218
 Alpha virt. eigenvalues --    0.34313   0.34744   0.34840   0.35428   0.35536
 Alpha virt. eigenvalues --    0.35843   0.36364   0.36694   0.36939   0.37630
 Alpha virt. eigenvalues --    0.37674   0.37903   0.38654   0.38923   0.39478
 Alpha virt. eigenvalues --    0.40365   0.40616   0.40764   0.41468   0.41724
 Alpha virt. eigenvalues --    0.42355   0.42497   0.42843   0.43052   0.43256
 Alpha virt. eigenvalues --    0.43494   0.43845   0.43997   0.44252   0.44576
 Alpha virt. eigenvalues --    0.44852   0.45235   0.45520   0.46296   0.46577
 Alpha virt. eigenvalues --    0.47612   0.48236   0.48282   0.48820   0.49263
 Alpha virt. eigenvalues --    0.49392   0.50071   0.50398   0.50910   0.51002
 Alpha virt. eigenvalues --    0.51186   0.51968   0.53308   0.53540   0.54196
 Alpha virt. eigenvalues --    0.54659   0.55126   0.55458   0.56153   0.56457
 Alpha virt. eigenvalues --    0.56925   0.57735   0.58507   0.59247   0.60752
 Alpha virt. eigenvalues --    0.60776   0.61226   0.62136   0.62666   0.63062
 Alpha virt. eigenvalues --    0.63817   0.64334   0.64912   0.65293   0.66188
 Alpha virt. eigenvalues --    0.67018   0.67774   0.68478   0.68930   0.69258
 Alpha virt. eigenvalues --    0.69766   0.70044   0.70448   0.70994   0.71666
 Alpha virt. eigenvalues --    0.71879   0.72281   0.72557   0.72973   0.73536
 Alpha virt. eigenvalues --    0.73905   0.74538   0.74956   0.75969   0.76865
 Alpha virt. eigenvalues --    0.77471   0.77818   0.78373   0.79108   0.79886
 Alpha virt. eigenvalues --    0.80461   0.81147   0.81577   0.81885   0.83093
 Alpha virt. eigenvalues --    0.83181   0.83750   0.85542   0.85990   0.86374
 Alpha virt. eigenvalues --    0.88479   0.90043   0.91758   0.92140   0.92734
 Alpha virt. eigenvalues --    0.94519   0.95271   0.96790   0.97281   0.98500
 Alpha virt. eigenvalues --    0.99849   1.01721   1.02639   1.02978   1.03753
 Alpha virt. eigenvalues --    1.04471   1.05695   1.06046   1.06208   1.06578
 Alpha virt. eigenvalues --    1.06922   1.07658   1.09446   1.11286   1.12235
 Alpha virt. eigenvalues --    1.12845   1.13387   1.14341   1.15135   1.15854
 Alpha virt. eigenvalues --    1.17741   1.18066   1.19632   1.19929   1.22321
 Alpha virt. eigenvalues --    1.23642   1.23872   1.24661   1.24993   1.26238
 Alpha virt. eigenvalues --    1.26729   1.27207   1.28261   1.28640   1.29349
 Alpha virt. eigenvalues --    1.29949   1.31880   1.32741   1.33563   1.34200
 Alpha virt. eigenvalues --    1.34911   1.36389   1.36947   1.38505   1.39038
 Alpha virt. eigenvalues --    1.39252   1.40448   1.41617   1.43139   1.43422
 Alpha virt. eigenvalues --    1.44704   1.46940   1.47068   1.47622   1.47905
 Alpha virt. eigenvalues --    1.49390   1.49622   1.50315   1.50433   1.51237
 Alpha virt. eigenvalues --    1.52346   1.52792   1.53783   1.54478   1.55383
 Alpha virt. eigenvalues --    1.55620   1.56035   1.56162   1.56976   1.57593
 Alpha virt. eigenvalues --    1.57698   1.58266   1.58886   1.59231   1.59560
 Alpha virt. eigenvalues --    1.60194   1.60548   1.61269   1.61550   1.62345
 Alpha virt. eigenvalues --    1.64346   1.64444   1.66446   1.67659   1.68926
 Alpha virt. eigenvalues --    1.69645   1.70225   1.71556   1.73110   1.73679
 Alpha virt. eigenvalues --    1.75601   1.76442   1.77960   1.79521   1.80111
 Alpha virt. eigenvalues --    1.80801   1.81946   1.82670   1.82853   1.84347
 Alpha virt. eigenvalues --    1.86663   1.86936   1.87548   1.88608   1.89366
 Alpha virt. eigenvalues --    1.90368   1.91289   1.92325   1.92843   1.93998
 Alpha virt. eigenvalues --    1.97040   1.98315   1.99706   2.01397   2.02189
 Alpha virt. eigenvalues --    2.03117   2.04093   2.04189   2.06297   2.07737
 Alpha virt. eigenvalues --    2.08055   2.08709   2.08988   2.11271   2.12041
 Alpha virt. eigenvalues --    2.12730   2.14817   2.15664   2.24162   2.25084
 Alpha virt. eigenvalues --    2.27078   2.27766   2.28876   2.30929   2.32597
 Alpha virt. eigenvalues --    2.33157   2.34245   2.38902   2.43319   2.46580
 Alpha virt. eigenvalues --    2.48560   2.51161   2.53036   2.53831   2.54802
 Alpha virt. eigenvalues --    2.56055   2.56581   2.58334   2.59737   2.60160
 Alpha virt. eigenvalues --    2.60395   2.61696   2.63122   2.63626   2.65380
 Alpha virt. eigenvalues --    2.66686   2.67448   2.68700   2.71390   2.72564
 Alpha virt. eigenvalues --    2.74222   2.76061   2.77957   2.85748   2.87439
 Alpha virt. eigenvalues --    2.88540   2.89979   2.91696   2.92813   2.93894
 Alpha virt. eigenvalues --    2.95223   2.95877   2.96577   2.97181   2.98417
 Alpha virt. eigenvalues --    2.99762   3.00925   3.02890   3.03574   3.04767
 Alpha virt. eigenvalues --    3.05580   3.05861   3.07224   3.07365   3.08150
 Alpha virt. eigenvalues --    3.08712   3.11443   3.13770   3.14022   3.15252
 Alpha virt. eigenvalues --    3.15349   3.17367   3.19420   3.19837   3.20136
 Alpha virt. eigenvalues --    3.22361   3.23451   3.24880   3.26497   3.27380
 Alpha virt. eigenvalues --    3.28311   3.29141   3.30430   3.32603   3.35475
 Alpha virt. eigenvalues --    3.40312   3.47166   3.51320   3.54793   3.58303
 Alpha virt. eigenvalues --    3.60517   3.62994   3.63622   3.65596   3.68848
 Alpha virt. eigenvalues --    3.71256   3.71844   3.74659   3.79401   3.80147
 Alpha virt. eigenvalues --    3.80409   3.83457   3.83965   3.84273   3.84519
 Alpha virt. eigenvalues --    3.84651   3.85441   3.87038   3.87292   3.88100
 Alpha virt. eigenvalues --    3.88389   3.91550   3.92298   3.94062   3.96563
 Alpha virt. eigenvalues --    3.97622   3.98105   3.98233   3.98745   3.99616
 Alpha virt. eigenvalues --    4.03020   4.06431   4.18487   4.19628   4.23877
 Alpha virt. eigenvalues --    4.24630   4.27498   4.31716   4.32171   4.32212
 Alpha virt. eigenvalues --    4.32974   4.41924   4.49797   4.50789   4.72582
 Alpha virt. eigenvalues --    4.85929   4.90323   5.02290   5.02356   5.02582
 Alpha virt. eigenvalues --    5.02948   5.18986   5.19664   5.20524   5.23675
 Alpha virt. eigenvalues --    5.24136   5.28541   5.32600   5.33045   5.33717
 Alpha virt. eigenvalues --    5.35143   5.41545   5.50344   5.52714   6.45644
 Alpha virt. eigenvalues --    6.46638   6.47911   6.49145   6.50293   6.51692
 Alpha virt. eigenvalues --    6.52935   6.53819   6.54795   6.55036   6.56294
 Alpha virt. eigenvalues --    6.57253   6.58434   6.60472   6.92087   6.93237
 Alpha virt. eigenvalues --    6.93477   6.94025   8.44101   8.48390  17.62879
 Alpha virt. eigenvalues --   17.66476  17.69041  17.70384  17.77498  17.78428
 Alpha virt. eigenvalues --   23.52847  23.59251  23.60808  23.61639  23.66420
 Alpha virt. eigenvalues --   23.72554  23.76338  23.77215  23.79754  23.83466
 Alpha virt. eigenvalues --   23.95873  24.23633  35.53982  35.60836  35.68853
 Alpha virt. eigenvalues --   50.02483  50.04366  50.07314  50.10095  66.89531
 Alpha virt. eigenvalues --   66.90561  66.90802  66.91451  66.94376  66.95501
 Alpha virt. eigenvalues --  189.72569 189.76904
          Condensed to atoms (all electrons):
              1          2          3          4          5          6
     1  C   42.683939 -25.970331   0.672002  -3.081804   0.041172   0.391411
     2  C  -25.970331  35.982055  -3.723886   0.663210   0.479637  -0.104773
     3  C    0.672002  -3.723886   7.563834   0.511443  -0.052587   0.051037
     4  N   -3.081804   0.663210   0.511443   8.127176  -0.123165   0.025660
     5  H    0.041172   0.479637  -0.052587  -0.123165   0.387615  -0.003808
     6  H    0.391411  -0.104773   0.051037   0.025660  -0.003808   0.382045
     7  H    0.002282   0.016381   0.416962  -0.068437  -0.000455  -0.000160
     8  N    0.123059  -1.869064   1.003194  -0.447411  -0.018588  -0.020874
     9  C   -2.804782  -0.282555   0.176273   0.677979  -0.132458   0.000462
    10  H   -0.067807   0.058919   0.033049  -0.097800   0.000975  -0.000009
    11  H    0.086202  -0.002472  -0.054437  -0.068254   0.000836  -0.000052
    12  C    1.252479   0.114234  -0.412330  -0.220772   0.071299  -0.006564
    13  H   -0.036300  -0.033004   0.018343   0.008396  -0.001597   0.000065
    14  H    0.015371  -0.005877   0.009072   0.026700  -0.000014  -0.000001
    15  C   -1.161977   0.370975  -0.194156   0.136678  -0.019406  -0.001643
    16  H    0.018108   0.003361   0.000010   0.002800   0.000159   0.000000
    17  H   -0.005530  -0.005373   0.004842  -0.001987  -0.000010   0.000000
    18  C   -0.450371   0.076354  -0.068932  -0.004182  -0.001856  -0.000199
    19  H    0.004265   0.001244  -0.000264   0.000210   0.000006   0.000000
    20  H   -0.002972  -0.001876   0.000726   0.000365  -0.000009   0.000000
    21  C   -0.016648   0.006658  -0.004276   0.003201   0.000131  -0.000006
    22  H    0.000166   0.000065  -0.000077  -0.000031   0.000000   0.000000
    23  H   -0.000142  -0.000009   0.000075   0.000026   0.000000   0.000000
    24  C   -0.008742   0.000821  -0.000920   0.000746  -0.000042   0.000000
    25  H    0.000005  -0.000001   0.000003   0.000003   0.000000   0.000000
    26  H   -0.000026  -0.000001  -0.000007  -0.000009   0.000000   0.000000
    27  H    0.000028   0.000004  -0.000001  -0.000004   0.000000   0.000000
    28  C   -0.315691   0.012285  -0.081306  -0.163805   0.000981  -0.015216
    29  H    0.001488   0.026494  -0.035315  -0.005881   0.000037  -0.000881
    30  H   -0.013031   0.020520  -0.014012  -0.017316  -0.000095   0.000238
    31  H   -0.045562   0.099528   0.065479   0.021202   0.000022  -0.000184
    32  N   -2.850989   3.407623  -0.328325   0.063882   0.145507  -0.162127
    33  S   -0.079354  -0.547169  -0.010293  -0.278397  -0.040365   0.008727
    34  S   -0.995973  -1.889716   0.363945   0.494615  -0.077369   0.185066
    35  O    0.503564  -0.498049   0.046946   0.054654  -0.043562   0.010870
    36  O   -0.441133   0.385081  -0.017597  -0.049398   0.031683  -0.018936
    37  O    1.010273  -1.585557   0.426369  -0.013211  -0.028809   0.007564
    38  O   -1.147699   0.860616  -0.117247   0.066904   0.010760   0.005994
    39  C    0.693682  -0.066865  -0.022099   0.043675   0.002595   0.009755
    40  C   -1.151942   0.692459  -0.031894   0.092968   0.007015  -0.038011
    41  F   -0.003097  -0.000419   0.001023  -0.000186  -0.000098   0.000936
    42  F   -0.211771   0.222565   0.003635   0.000177   0.003856  -0.005184
    43  F   -0.003208  -0.013202  -0.000715   0.000489  -0.000689  -0.002785
    44  F   -0.003463   0.029981   0.000763  -0.002230   0.000194  -0.001002
    45  F   -0.030159   0.024668  -0.003260  -0.000754   0.000561  -0.000077
    46  F    0.013708  -0.030593   0.003332  -0.000966  -0.000025   0.000386
              7          8          9         10         11         12
     1  C    0.002282   0.123059  -2.804782  -0.067807   0.086202   1.252479
     2  C    0.016381  -1.869064  -0.282555   0.058919  -0.002472   0.114234
     3  C    0.416962   1.003194   0.176273   0.033049  -0.054437  -0.412330
     4  N   -0.068437  -0.447411   0.677979  -0.097800  -0.068254  -0.220772
     5  H   -0.000455  -0.018588  -0.132458   0.000975   0.000836   0.071299
     6  H   -0.000160  -0.020874   0.000462  -0.000009  -0.000052  -0.006564
     7  H    0.387762  -0.047425   0.014035   0.002746  -0.000332  -0.003110
     8  N   -0.047425   7.748758  -0.238391   0.008873  -0.011805  -0.110035
     9  C    0.014035  -0.238391  12.414135   0.328908   0.261460  -3.461213
    10  H    0.002746   0.008873   0.328908   0.441576  -0.017387   0.020971
    11  H   -0.000332  -0.011805   0.261460  -0.017387   0.375173   0.160409
    12  C   -0.003110  -0.110035  -3.461213   0.020971   0.160409  12.377605
    13  H    0.000044   0.004476   0.033146   0.003372  -0.005163   0.318875
    14  H   -0.000590   0.003033  -0.138896  -0.003778   0.003241   0.504769
    15  C    0.002812   0.055572   0.937565  -0.008584  -0.062823  -2.772439
    16  H   -0.000015   0.000190  -0.008309   0.000456   0.002333   0.000468
    17  H    0.000027   0.000088   0.013892   0.001476  -0.000448  -0.048611
    18  C    0.000568   0.011896  -0.454651   0.015299  -0.006903  -0.988080
    19  H   -0.000001   0.000037   0.008348   0.000104  -0.000012   0.035711
    20  H    0.000000  -0.000033   0.011676  -0.000057   0.000066   0.026575
    21  C    0.000004   0.001354  -0.240391   0.001802   0.001038  -0.186068
    22  H    0.000000   0.000001  -0.000474   0.000016  -0.000020   0.000223
    23  H    0.000000  -0.000001   0.002537  -0.000029   0.000005   0.007373
    24  C    0.000004   0.000232  -0.033601   0.000064  -0.000288  -0.317014
    25  H    0.000000   0.000000   0.000714   0.000000   0.000000   0.006999
    26  H    0.000000   0.000000  -0.000624   0.000000   0.000000  -0.003662
    27  H    0.000000   0.000000  -0.000306   0.000000   0.000000   0.000468
    28  C    0.004178   0.124355  -0.117849   0.003161  -0.001482  -0.001881
    29  H    0.000025  -0.075360  -0.004842   0.000006  -0.000003   0.002415
    30  H   -0.000084  -0.059661   0.004597  -0.000006  -0.000004  -0.002822
    31  H    0.001759  -0.135080   0.016462   0.000001  -0.000002   0.000486
    32  N   -0.000303  -0.408891   0.019326  -0.000181   0.005197   0.161688
    33  S    0.000221   0.169173  -0.358635   0.000118  -0.006242   0.020095
    34  S    0.002278   0.536852  -0.190838   0.017207   0.029663  -0.163262
    35  O    0.000000   0.016241   0.062493  -0.000009  -0.000512  -0.031694
    36  O    0.000024   0.010488  -0.060284  -0.000306  -0.001666   0.004630
    37  O    0.000803   0.097041   0.018177  -0.002241  -0.010039  -0.052959
    38  O    0.000193  -0.001709   0.132032   0.000986   0.005136  -0.036173
    39  C    0.000060  -0.072558   0.072699  -0.000117   0.000695   0.031094
    40  C    0.000415  -0.046238  -0.036297   0.001529   0.006835   0.005227
    41  F    0.000000   0.001083  -0.000857   0.000000  -0.000002  -0.000390
    42  F   -0.000001   0.003341  -0.003208   0.000001   0.000014  -0.000973
    43  F    0.000000   0.000182   0.000414   0.000000   0.000000   0.000327
    44  F    0.000000  -0.004343   0.001013  -0.000002  -0.000022   0.000075
    45  F    0.000000   0.000116   0.000072   0.000002   0.000048   0.000297
    46  F   -0.000002   0.003609  -0.002222   0.000002   0.000002  -0.000855
             13         14         15         16         17         18
     1  C   -0.036300   0.015371  -1.161977   0.018108  -0.005530  -0.450371
     2  C   -0.033004  -0.005877   0.370975   0.003361  -0.005373   0.076354
     3  C    0.018343   0.009072  -0.194156   0.000010   0.004842  -0.068932
     4  N    0.008396   0.026700   0.136678   0.002800  -0.001987  -0.004182
     5  H   -0.001597  -0.000014  -0.019406   0.000159  -0.000010  -0.001856
     6  H    0.000065  -0.000001  -0.001643   0.000000   0.000000  -0.000199
     7  H    0.000044  -0.000590   0.002812  -0.000015   0.000027   0.000568
     8  N    0.004476   0.003033   0.055572   0.000190   0.000088   0.011896
     9  C    0.033146  -0.138896   0.937565  -0.008309   0.013892  -0.454651
    10  H    0.003372  -0.003778  -0.008584   0.000456   0.001476   0.015299
    11  H   -0.005163   0.003241  -0.062823   0.002333  -0.000448  -0.006903
    12  C    0.318875   0.504769  -2.772439   0.000468  -0.048611  -0.988080
    13  H    0.400381  -0.030940   0.000257  -0.004820   0.004334   0.021938
    14  H   -0.030940   0.426842  -0.052526   0.005445  -0.006063  -0.024456
    15  C    0.000257  -0.052526   8.930548   0.386328   0.430072  -0.297653
    16  H   -0.004820   0.005445   0.386328   0.441593  -0.037911  -0.082279
[...]
    36  O    3.452029   5.863187   4.660517   4.534223   5.517400
    37  O    3.596610   3.259795   2.795075   4.183567   4.333048
    38  O    4.389145   4.066798   4.006833   3.089377   3.551859
    39  C    3.925958   7.246373   5.608019   6.736334   7.580612
    40  C    5.497631   5.575678   5.292682   5.569600   5.799148
    41  F    4.856745   8.290308   6.663624   7.453611   8.385197
    42  F    3.021578   6.834667   4.955199   6.649117   7.478026
    43  F    4.718471   7.817049   6.226122   7.584007   8.327732
    44  F    5.684751   6.197561   5.648237   6.603702   6.826703
    45  F    6.159099   6.543038   6.223897   6.013188   6.363866
    46  F    6.301547   5.443576   5.654311   5.606312   5.592235
                   11         12         13         14         15
    11  H    0.000000
    12  C    2.183103   0.000000
    13  H    2.528377   1.094676   0.000000
    14  H    3.077186   1.095327   1.759771   0.000000
    15  C    2.783091   1.527116   2.155649   2.165457   0.000000
    16  H    2.556462   2.154622   2.496560   3.065888   1.095771
    17  H    3.088096   2.159384   3.062467   2.524085   1.097000
    18  C    4.213489   2.539796   2.779121   2.776121   1.526057
    19  H    4.741934   2.768910   3.111285   2.553545   2.154892
    20  H    4.415068   2.760492   2.548326   3.083021   2.154570
    21  C    5.217560   3.906339   4.196756   4.205672   2.544644
    22  H    5.102401   4.190360   4.376062   4.731334   2.772746
    23  H    5.377410   4.192083   4.724762   4.404163   2.765020
    24  C    6.607868   5.076611   5.205431   5.201762   3.903364
    25  H    7.376187   6.009435   6.181837   6.185785   4.716396
    26  H    6.986121   5.231423   5.430556   5.124852   4.218802
    27  H    6.774301   5.227431   5.124569   5.407110   4.222703
    28  C    5.357831   5.940125   6.113018   5.809585   7.309985
    29  H    5.531483   6.466379   6.601751   6.494967   7.778615
    30  H    6.145403   6.487813   6.550412   6.256376   7.932148
    31  H    5.621272   6.130836   6.479187   5.901099   7.413527
    32  N    4.382474   5.926058   5.639756   6.530933   6.980679
    33  S    4.603836   5.966287   5.434293   6.692268   6.899490
    34  S    3.514206   5.377822   5.372465   6.018574   6.283308
    35  O    5.128087   6.704255   6.204881   7.564265   7.386620
    36  O    4.062550   4.972559   4.270124   5.669095   5.949425
    37  O    3.966977   5.596236   5.766088   6.011267   6.629917
    38  O    2.287915   4.344891   4.389371   5.148313   5.033825
    39  C    6.285384   7.410219   6.783194   7.992535   8.487282
    40  C    4.853203   6.928241   6.981094   7.651409   7.599180
    41  F    6.971277   7.922202   7.158648   8.537716   8.914286
    42  F    6.408506   7.270967   6.651349   7.684714   8.512191
    43  F    7.076318   8.420784   7.887011   9.018198   9.470741
    44  F    5.991329   7.974709   7.988862   8.615992   8.768457
    45  F    5.132850   7.229021   7.166901   8.076496   7.748931
    46  F    4.919029   7.043837   7.291359   7.742155   7.559414
                   16         17         18         19         20
    16  H    0.000000
    17  H    1.754629   0.000000
    18  C    2.155695   2.152824   0.000000
    19  H    3.060352   2.501747   1.096979   0.000000
    20  H    2.511235   3.058350   1.096456   1.753755   0.000000
    21  C    2.769296   2.773037   1.526688   2.155821   2.154174
    22  H    2.545981   3.100934   2.152294   3.058088   2.499876
    23  H    3.077297   2.540958   2.153853   2.511814   3.057984
    24  C    4.193845   4.188174   2.536851   2.756841   2.765175
    25  H    4.875050   4.874732   3.491075   3.764924   3.767747
    26  H    4.747993   4.399293   2.800593   2.571311   3.127737
    27  H    4.419764   4.746806   2.796753   3.106651   2.576276
    28  C    7.637843   7.403994   8.443332   8.361976   8.565539
    29  H    7.968023   7.883549   9.002472   9.033099   9.103735
    30  H    8.319110   8.099789   8.943310   8.788551   8.985580
    31  H    7.817623   7.351473   8.566279   8.411003   8.817740
    32  N    6.674376   7.440456   8.184868   8.644941   7.993630
    33  S    6.462327   7.549250   7.927236   8.500502   7.549945
    34  S    5.964687   6.545433   7.650741   8.122409   7.662443
    35  O    6.756507   8.016742   8.423574   9.134749   8.051554
    36  O    5.599070   6.728967   6.807199   7.345954   6.323709
    37  O    6.521989   6.734811   8.026026   8.328488   8.156985
    38  O    4.599343   5.317298   6.418982   6.994284   6.466732
    39  C    8.145491   9.179393   9.409478   9.890477   8.935825
    40  C    7.113652   7.760160   9.017678   9.591231   9.078389
    41  F    8.520825   9.711530   9.679069  10.205821   9.076345
    42  F    8.339111   9.190623   9.388419   9.729279   8.924374
    43  F    9.085162  10.083133  10.492330  10.992779  10.082811
    44  F    8.343165   8.935506  10.176241  10.694333  10.206175
    45  F    7.104753   8.007304   9.095120   9.789136   9.068735
    46  F    7.089171   7.535853   9.044871   9.602503   9.259619
                   21         22         23         24         25
    21  C    0.000000
    22  H    1.095226   0.000000
    23  H    1.095637   1.751946   0.000000
    24  C    1.525700   2.157966   2.157472   0.000000
    25  H    2.178853   2.502459   2.505178   1.091483   0.000000
    26  H    2.171914   3.072304   2.517705   1.093132   1.764851
    27  H    2.172223   2.521908   3.072327   1.092962   1.763729
    28  C    9.797615  10.044898   9.867229  10.959282  11.905519
    29  H   10.309622  10.453923  10.386358  11.537207  12.453740
    30  H   10.361000  10.659040  10.490618  11.429964  12.417872
    31  H    9.866229  10.175294   9.819741  11.045375  11.962782
    32  N    9.330248   9.101280   9.670601  10.570849  11.401276
    33  S    9.013599   8.678971   9.510808  10.146611  10.955614
    34  S    8.694027   8.467631   8.875861  10.053255  10.823779
    35  O    9.325011   8.830394   9.819753  10.482210  11.189111
    36  O    7.961822   7.697006   8.552282   8.988371   9.845847
    37  O    9.142678   9.066894   9.211822  10.508294  11.315213
    38  O    7.358638   7.070135   7.544503   8.744627   9.467676
    39  C   10.584419  10.306219  11.139322  11.618252  12.477622
    40  C    9.877853   9.512159   9.990218  11.296629  11.961203
    41  F   10.803289  10.472979  11.462087  11.722193  12.561617
    42  F   10.682415  10.538486  11.225057  11.670329  12.597830
    43  F   11.629899  11.313191  12.125122  12.732074  13.563605
    44  F   11.106646  10.776285  11.227842  12.509216  13.208077
    45  F    9.847902   9.351442  10.038709  11.232889  11.840489
    46  F    9.792063   9.439098   9.761353  11.270238  11.870435
                   26         27         28         29         30
    26  H    0.000000
    27  H    1.763591   0.000000
    28  C   10.932700  11.091500   0.000000
    29  H   11.596203  11.654640   1.089060   0.000000
    30  H   11.347417  11.500908   1.088268   1.795537   0.000000
    31  H   10.958951  11.278134   1.088025   1.781439   1.777155
    32  N   10.965752  10.461802   4.415564   3.848696   4.947685
    33  S   10.636075   9.892112   5.715588   5.301867   6.126525
    34  S   10.447592  10.099567   4.217317   3.671557   5.036510
    35  O   11.093816  10.221181   6.936627   6.430169   7.440020
    36  O    9.440892   8.665676   5.734051   5.593639   6.063264
    37  O   10.772148  10.646244   3.056260   2.446194   3.992787
    38  O    9.204120   8.816107   4.968793   4.681109   5.820556
    39  C   12.049424  11.275741   6.127009   5.646449   6.260255
    40  C   11.786309  11.380895   5.627929   4.860616   6.477963
    41  F   12.199470  11.265940   7.290023   6.893339   7.356597
    42  F   11.986874  11.338794   5.364684   4.999113   5.306821
    43  F   13.184441  12.434414   6.506060   5.833170   6.673140
    44  F   12.962447  12.570114   5.678752   4.742546   6.427325
    45  F   11.827482  11.246090   6.724763   6.005854   7.525332
    46  F   11.745492  11.477557   5.937076   5.227972   6.903407
                   31         32         33         34         35
    31  H    0.000000
    32  N    5.266041   0.000000
    33  S    6.611606   1.611913   0.000000
    34  S    4.800069   1.581764   2.790273   0.000000
    35  O    7.763333   2.587080   1.445485   3.352761   0.000000
    36  O    6.616899   2.560232   1.458737   3.463660   2.493328
    37  O    3.498606   2.474561   3.961621   1.456157   4.727705
    38  O    5.435085   2.566662   3.093702   1.459722   3.440941
    39  C    7.150361   2.572875   1.855734   4.127007   2.655514
    40  C    6.090440   2.743221   3.711088   1.858105   3.605257
    41  F    8.325786   3.755799   2.600636   5.242178   3.028120
    42  F    6.437213   2.860976   2.634097   4.400698   3.792420
    43  F    7.495310   2.908791   2.638847   4.364251   3.010358
    44  F    6.182785   3.033848   4.158470   2.633681   4.134587
    45  F    7.257590   3.139119   3.527125   2.624399   2.918072
    46  F    6.172435   3.880877   4.892658   2.608665   4.765247
                   36         37         38         39         40
    36  O    0.000000
    37  O    4.489061   0.000000
    38  O    3.322680   2.496908   0.000000
    39  C    2.632774   4.969368   4.804501   0.000000
    40  C    4.779169   2.624619   2.623965   4.872621   0.000000
    41  F    2.983785   6.197283   5.689997   1.327083   5.937345
    42  F    2.970838   4.902702   5.177289   1.331247   5.458236
    43  F    3.778518   5.132203   5.282792   1.321158   4.651240
    44  F    5.399979   2.993532   3.768620   4.839612   1.325145
    45  F    4.653263   3.759594   2.936421   4.773986   1.316790
    46  F    5.794807   2.950341   3.003052   6.165626   1.331699
                   41         42         43         44         45
    41  F    0.000000
    42  F    2.158316   0.000000
    43  F    2.156686   2.160821   0.000000
    44  F    5.984039   5.353813   4.302120   0.000000
    45  F    5.617617   5.636684   4.550888   2.155839   0.000000
    46  F    7.229586   6.678905   5.975499   2.159373   2.159048
                   46
    46  F    0.000000
 Stoichiometry    C12H19F6N3O4S2
 Framework group  C1[X(C12H19F6N3O4S2)]
 Deg. of freedom   132
 Full point group                 C1      NOp   1
 Largest Abelian subgroup         C1      NOp   1
 Largest concise Abelian subgroup C1      NOp   1
                         Standard orientation:                         
 ---------------------------------------------------------------------
 Center     Atomic      Atomic             Coordinates (Angstroms)
 Number     Number       Type             X           Y           Z
 ---------------------------------------------------------------------
      1          6           0       -0.910749    0.040936    1.641261
      2          6           0        0.032453   -0.426318    2.498702
      3          6           0       -1.160814   -2.133182    1.814373
      4          7           0       -1.650492   -1.043807    1.231127
      5          1           0       -1.002642    1.029483    1.224169
      6          1           0        0.851636    0.082041    2.975993
      7          1           0       -1.513633   -3.138592    1.656899
      8          7           0       -0.157653   -1.783077    2.614386
      9          6           0       -2.687842   -1.015192    0.190260
     10          1           0       -3.014706   -2.046266    0.039584
     11          1           0       -2.192850   -0.678619   -0.721059
     12          6           0       -3.859339   -0.123881    0.575482
     13          1           0       -3.499930    0.892032    0.767997
     14          1           0       -4.305948   -0.486412    1.507605
     15          6           0       -4.907098   -0.092227   -0.535051
     16          1           0       -4.446650    0.276368   -1.458544
     17          1           0       -5.250240   -1.112187   -0.747993
     18          6           0       -6.109274    0.778866   -0.181753
     19          1           0       -6.572549    0.403899    0.739191
     20          1           0       -5.768349    1.797000    0.040486
     21          6           0       -7.155416    0.827773   -1.292596
     22          1           0       -6.692601    1.212689   -2.207562
     23          1           0       -7.487640   -0.190490   -1.523224
     24          6           0       -8.358578    1.689410   -0.921453
     25          1           0       -9.095347    1.720009   -1.726170
     26          1           0       -8.856076    1.303058   -0.028053
     27          1           0       -8.054223    2.717754   -0.710637
     28          6           0        0.770444   -2.705610    3.255943
     29          1           0        1.672423   -2.754478    2.647587
     30          1           0        0.993879   -2.351046    4.260278
     31          1           0        0.309745   -3.689662    3.312467
     32          7           0        2.042736    0.099225    0.091867
     33         16           0        1.770643    1.630825   -0.330544
     34         16           0        1.293738   -1.104128   -0.610216
     35          8           0        2.091057    1.964708   -1.699953
     36          8           0        0.541262    2.167468    0.242650
     37          8           0        1.306545   -2.255715    0.280894
     38          8           0        0.030888   -0.754968   -1.253709
     39          6           0        3.124837    2.348556    0.715769
     40          6           0        2.388048   -1.613764   -2.022771
     41          9           0        3.095579    3.669549    0.592200
     42          9           0        2.935690    2.038366    1.996481
     43          9           0        4.309603    1.905815    0.333970
     44          9           0        3.612425   -1.878239   -1.590377
     45          9           0        2.441228   -0.659058   -2.928113
     46          9           0        1.882745   -2.714685   -2.576001
 ---------------------------------------------------------------------
 Rotational constants (GHZ):      0.2057639      0.0887351      0.0835320
 Standard basis: 6-311+G(d) (5D, 7F)
 There are   667 symmetry adapted basis functions of A   symmetry.
 Integral buffers will be    131072 words long.
 Raffenetti 2 integral format.
 Two-electron integral symmetry is turned on.
   667 basis functions,  1095 primitive gaussians,   694 cartesian basis functions
   115 alpha electrons      115 beta electrons
       nuclear repulsion energy      3428.9329950021 Hartrees.
 NAtoms=   46 NActive=   46 NUniq=   46 SFac= 7.50D-01 NAtFMM=   80 NAOKFM=F Big=F
 One-electron integrals computed using PRISM.
 PrsmSu:  requested number of processors reduced to:   8 ShMem   1 Linda.
 NBasis=   667 RedAO= T  NBF=   667
 NBsUse=   667 1.00D-06 NBFU=   667
 Initial guess read from the read-write file.
 B after Tr=     0.000000    0.000000    0.000000
         Rot=    1.000000    0.000000    0.000000    0.000000 Ang=   0.00 deg.
 Initial guess orbital symmetries:
       Occupied  (A) (A) (A) (A) (A) (A) (A) (A) (A) (A) (A) (A)
                 (A) (A) (A) (A) (A) (A) (A) (A) (A) (A) (A) (A)
                 (A) (A) (A) (A) (A) (A) (A) (A) (A) (A) (A) (A)
                 (A) (A) (A) (A) (A) (A) (A) (A) (A) (A) (A) (A)
                 (A) (A) (A) (A) (A) (A) (A) (A) (A) (A) (A) (A)
                 (A) (A) (A) (A) (A) (A) (A) (A) (A) (A) (A) (A)
                 (A) (A) (A) (A) (A) (A) (A) (A) (A) (A) (A) (A)
                 (A) (A) (A) (A) (A) (A) (A) (A) (A) (A) (A) (A)
                 (A) (A) (A) (A) (A) (A) (A) (A) (A) (A) (A) (A)
                 (A) (A) (A) (A) (A) (A) (A)
       Virtual   (A) (A) (A) (A) (A) (A) (A) (A) (A) (A) (A) (A)
                 (A) (A) (A) (A) (A) (A) (A) (A) (A) (A) (A) (A)
                 (A) (A) (A) (A) (A) (A) (A) (A) (A) (A) (A) (A)
                 (A) (A) (A) (A) (A) (A) (A) (A) (A) (A) (A) (A)
                 (A) (A) (A) (A) (A) (A) (A) (A) (A) (A) (A) (A)
                 (A) (A) (A) (A) (A) (A) (A) (A) (A) (A) (A) (A)
                 (A) (A) (A) (A) (A) (A) (A) (A) (A) (A) (A) (A)
                 (A) (A) (A) (A) (A) (A) (A) (A) (A) (A) (A) (A)
                 (A) (A) (A) (A) (A) (A) (A) (A) (A) (A) (A) (A)
                 (A) (A) (A) (A) (A) (A) (A) (A) (A) (A) (A) (A)
                 (A) (A) (A) (A) (A) (A) (A) (A) (A) (A) (A) (A)
                 (A) (A) (A) (A) (A) (A) (A) (A) (A) (A) (A) (A)
                 (A) (A) (A) (A) (A) (A) (A) (A) (A) (A) (A) (A)
                 (A) (A) (A) (A) (A) (A) (A) (A) (A) (A) (A) (A)
                 (A) (A) (A) (A) (A) (A) (A) (A) (A) (A) (A) (A)
                 (A) (A) (A) (A) (A) (A) (A) (A) (A) (A) (A) (A)
                 (A) (A) (A) (A) (A) (A) (A) (A) (A) (A) (A) (A)
                 (A) (A) (A) (A) (A) (A) (A) (A) (A) (A) (A) (A)
                 (A) (A) (A) (A) (A) (A) (A) (A) (A) (A) (A) (A)
                 (A) (A) (A) (A) (A) (A) (A) (A) (A) (A) (A) (A)
                 (A) (A) (A) (A) (A) (A) (A) (A) (A) (A) (A) (A)
                 (A) (A) (A) (A) (A) (A) (A) (A) (A) (A) (A) (A)
                 (A) (A) (A) (A) (A) (A) (A) (A) (A) (A) (A) (A)
                 (A) (A) (A) (A) (A) (A) (A) (A) (A) (A) (A) (A)
                 (A) (A) (A) (A) (A) (A) (A) (A) (A) (A) (A) (A)
                 (A) (A) (A) (A) (A) (A) (A) (A) (A) (A) (A) (A)
                 (A) (A) (A) (A) (A) (A) (A) (A) (A) (A) (A) (A)
                 (A) (A) (A) (A) (A) (A) (A) (A) (A) (A) (A) (A)
                 (A) (A) (A) (A) (A) (A) (A) (A) (A) (A) (A) (A)
                 (A) (A) (A) (A) (A) (A) (A) (A) (A) (A) (A) (A)
                 (A) (A) (A) (A) (A) (A) (A) (A) (A) (A) (A) (A)
                 (A) (A) (A) (A) (A) (A) (A) (A) (A) (A) (A) (A)
                 (A) (A) (A) (A) (A) (A) (A) (A) (A) (A) (A) (A)
                 (A) (A) (A) (A) (A) (A) (A) (A) (A) (A) (A) (A)
                 (A) (A) (A) (A) (A) (A) (A) (A) (A) (A) (A) (A)
                 (A) (A) (A) (A) (A) (A) (A) (A) (A) (A) (A) (A)
                 (A) (A) (A) (A) (A) (A) (A) (A) (A) (A) (A) (A)
                 (A) (A) (A) (A) (A) (A) (A) (A) (A) (A) (A) (A)
                 (A) (A) (A) (A) (A) (A) (A) (A) (A) (A) (A) (A)
                 (A) (A) (A) (A) (A) (A) (A) (A) (A) (A) (A) (A)
                 (A) (A) (A) (A) (A) (A) (A) (A) (A) (A) (A) (A)
                 (A) (A) (A) (A) (A) (A) (A) (A) (A) (A) (A) (A)
                 (A) (A) (A) (A) (A) (A) (A) (A) (A) (A) (A) (A)
                 (A) (A) (A) (A) (A) (A) (A) (A) (A) (A) (A) (A)
                 (A) (A) (A) (A) (A) (A) (A) (A) (A) (A) (A) (A)
                 (A) (A) (A) (A) (A) (A) (A) (A) (A) (A) (A) (A)
 Harris functional with IExCor= 1009 diagonalized for initial guess.
 ExpMin= 4.05D-02 ExpMax= 9.34D+04 ExpMxC= 3.17D+03 IAcc=2 IRadAn=         0 AccDes= 0.00D+00
 HarFok:  IExCor= 1009 AccDes= 0.00D+00 IRadAn=         0 IDoV= 1
 ScaDFX=  1.000000  1.000000  1.000000  1.000000
 FoFCou: FMM=F IPFlag=           0 FMFlag=      100000 FMFlg1=           0
         NFxFlg=           0 DoJE=T BraDBF=F KetDBF=T FulRan=T
         Omega=  0.000000  0.000000  1.000000  0.000000  0.000000 ICntrl=     500 IOpCl=  0
         NMat0=    1 NMatS0=    1 NMatT0=    0 NMatD0=    1 NMtDS0=    0 NMtDT0=    0
         I1Cent=           4 NGrid=           0.
 Petite list used in FoFCou.
 Requested convergence on RMS density matrix=1.00D-08 within 128 cycles.
 Requested convergence on MAX density matrix=1.00D-06.
 Requested convergence on             energy=1.00D-06.
 No special actions if energy rises.
 SCF Done:  E(RM062X) =  -2329.01487152     A.U. after   13 cycles
             Convg  =    0.4525D-08             -V/T =  2.0023
 PrsmSu:  requested number of processors reduced to:   8 ShMem   1 Linda.
 Calling FoFJK, ICntrl=      2127 FMM=F ISym2X=0 I1Cent= 0 IOpClX= 0 NMat=1 NMatS=1 NMatT=0.
 CoulSu:  requested number of processors reduced to:  13 ShMem   1 Linda.
