 Entering Gaussian System, Link 0=g09
 Input=CH2_M062X_3G.com
 Output=CH2_M062X_3G.log
 Initial command:
 /sw/contrib/gaussian/g09/E01/g09/l1.exe "/scr/Gau-30965.inp" -scrdir="/scr/"
 Entering Link 1 = /sw/contrib/gaussian/g09/E01/g09/l1.exe PID=     30966.
  
 Copyright (c) 1988,1990,1992,1993,1995,1998,2003,2009,2015,
            Gaussian, Inc.  All Rights Reserved.
  
 This is part of the Gaussian(R) 09 program.  It is based on
 the Gaussian(R) 03 system (copyright 2003, Gaussian, Inc.),
 the Gaussian(R) 98 system (copyright 1998, Gaussian, Inc.),
 the Gaussian(R) 94 system (copyright 1995, Gaussian, Inc.),
 the Gaussian 92(TM) system (copyright 1992, Gaussian, Inc.),
 the Gaussian 90(TM) system (copyright 1990, Gaussian, Inc.),
 the Gaussian 88(TM) system (copyright 1988, Gaussian, Inc.),
 the Gaussian 86(TM) system (copyright 1986, Carnegie Mellon
 University), and the Gaussian 82(TM) system (copyright 1983,
 Carnegie Mellon University). Gaussian is a federally registered
 trademark of Gaussian, Inc.
  
 This software contains proprietary and confidential information,
 including trade secrets, belonging to Gaussian, Inc.
  
 This software is provided under written license and may be
 used, copied, transmitted, or stored only in accord with that
 written license.
  
 The following legend is applicable only to US Government
 contracts under FAR:
  
                    RESTRICTED RIGHTS LEGEND
  
 Use, reproduction and disclosure by the US Government is
 subject to restrictions as set forth in subparagraphs (a)
 and (c) of the Commercial Computer Software - Restricted
 Rights clause in FAR 52.227-19.
  
 Gaussian, Inc.
 340 Quinnipiac St., Bldg. 40, Wallingford CT 06492
  
  
 ---------------------------------------------------------------
 Warning -- This program may not be used in any manner that
 competes with the business of Gaussian, Inc. or will provide
 assistance to any competitor of Gaussian, Inc.  The licensee
 of this program is prohibited from giving any competitor of
 Gaussian, Inc. access to this program.  By using this program,
 the user acknowledges that Gaussian, Inc. is engaged in the
 business of creating and licensing software in the field of
 computational chemistry and represents and warrants to the
 licensee that it is not a competitor of Gaussian, Inc. and that
 it will not use this program in any manner prohibited above.
 ---------------------------------------------------------------
  

 Cite this work as:
 Gaussian 09, Revision E.01,
 M. J. Frisch, G. W. Trucks, H. B. Schlegel, G. E. Scuseria, 
 M. A. Robb, J. R. Cheeseman, G. Scalmani, V. Barone, B. Mennucci, 
 G. A. Petersson, H. Nakatsuji, M. Caricato, X. Li, H. P. Hratchian, 
 A. F. Izmaylov, J. Bloino, G. Zheng, J. L. Sonnenberg, M. Hada, 
 M. Ehara, K. Toyota, R. Fukuda, J. Hasegawa, M. Ishida, T. Nakajima, 
 Y. Honda, O. Kitao, H. Nakai, T. Vreven, J. A. Montgomery, Jr., 
 J. E. Peralta, F. Ogliaro, M. Bearpark, J. J. Heyd, E. Brothers, 
 K. N. Kudin, V. N. Staroverov, T. Keith, R. Kobayashi, J. Normand, 
 K. Raghavachari, A. Rendell, J. C. Burant, S. S. Iyengar, J. Tomasi, 
 M. Cossi, N. Rega, J. M. Millam, M. Klene, J. E. Knox, J. B. Cross, 
 V. Bakken, C. Adamo, J. Jaramillo, R. Gomperts, R. E. Stratmann, 
 O. Yazyev, A. J. Austin, R. Cammi, C. Pomelli, J. W. Ochterski, 
 R. L. Martin, K. Morokuma, V. G. Zakrzewski, G. A. Voth, 
 P. Salvador, J. J. Dannenberg, S. Dapprich, A. D. Daniels, 
 O. Farkas, J. B. Foresman, J. V. Ortiz, J. Cioslowski, 
 and D. J. Fox, Gaussian, Inc., Wallingford CT, 2013.
 
 ******************************************
 Gaussian 09:  ES64L-G09RevE.01 30-Nov-2015
                24-Feb-2017 
 ******************************************
 %NProcShared=8
 Will use up to    8 processors via shared memory.
 ------------------
 #n M062X/3-21G Opt
 ------------------
 1/14=-1,18=20,19=15,26=3,38=1/1,3;
 2/9=110,12=2,17=6,18=5,40=1/2;
 3/5=5,11=2,16=1,25=1,30=1,71=1,74=-55/1,2,3;
 4//1;
 5/5=2,38=5/2;
 6/7=2,8=2,9=2,10=2,28=1/1;
 7//1,2,3,16;
 1/14=-1,18=20,19=15,26=3/3(2);
 2/9=110/2;
 99//99;
 2/9=110/2;
 3/5=5,11=2,16=1,25=1,30=1,71=1,74=-55/1,2,3;
 4/5=5,16=3,69=1/1;
 5/5=2,38=5/2;
 7//1,2,3,16;
 1/14=-1,18=20,19=15,26=3/3(-5);
 2/9=110/2;
 6/7=2,8=2,9=2,10=2,19=2,28=1/1;
 99/9=1/99;
 -----
 Title
 -----
 Symbolic Z-matrix:
 Charge =  0 Multiplicity = 1
 C                    -0.74586  -1.17255   1.55783 
 C                     0.44906  -0.84175   1.09189 
 H                    -0.85261  -1.84945   2.40196 
 H                    -1.65368  -0.77653   1.10932 
 H                     1.35689  -1.23777   1.54039 
 H                     0.55581  -0.16485   0.24776 
 

 GradGradGradGradGradGradGradGradGradGradGradGradGradGradGradGradGradGrad
 Berny optimization.
 Initialization pass.
                           ----------------------------
                           !    Initial Parameters    !
                           ! (Angstroms and Degrees)  !
 --------------------------                            --------------------------
 ! Name  Definition              Value          Derivative Info.                !
 --------------------------------------------------------------------------------
 ! R1    R(1,2)                  1.3245         estimate D2E/DX2                !
 ! R2    R(1,3)                  1.0873         estimate D2E/DX2                !
 ! R3    R(1,4)                  1.0873         estimate D2E/DX2                !
 ! R4    R(2,5)                  1.0873         estimate D2E/DX2                !
 ! R5    R(2,6)                  1.0873         estimate D2E/DX2                !
 ! A1    A(2,1,3)              121.1431         estimate D2E/DX2                !
 ! A2    A(2,1,4)              121.1433         estimate D2E/DX2                !
 ! A3    A(3,1,4)              117.7137         estimate D2E/DX2                !
 ! A4    A(1,2,5)              121.1439         estimate D2E/DX2                !
 ! A5    A(1,2,6)              121.1431         estimate D2E/DX2                !
 ! A6    A(5,2,6)              117.713          estimate D2E/DX2                !
 ! D1    D(3,1,2,5)              0.0002         estimate D2E/DX2                !
 ! D2    D(3,1,2,6)            180.0            estimate D2E/DX2                !
 ! D3    D(4,1,2,5)           -179.9996         estimate D2E/DX2                !
 ! D4    D(4,1,2,6)              0.0002         estimate D2E/DX2                !
 --------------------------------------------------------------------------------
 Trust Radius=3.00D-01 FncErr=1.00D-07 GrdErr=1.00D-06
 Number of steps in this run=     25 maximum allowed number of steps=    100.
 GradGradGradGradGradGradGradGradGradGradGradGradGradGradGradGradGradGrad

                          Input orientation:                          
 ---------------------------------------------------------------------
 Center     Atomic      Atomic             Coordinates (Angstroms)
 Number     Number       Type             X           Y           Z
 ---------------------------------------------------------------------
      1          6           0       -0.745860   -1.172550    1.557830
      2          6           0        0.449060   -0.841750    1.091890
      3          1           0       -0.852610   -1.849450    2.401960
      4          1           0       -1.653680   -0.776530    1.109320
      5          1           0        1.356890   -1.237770    1.540390
      6          1           0        0.555810   -0.164850    0.247760
 ---------------------------------------------------------------------
                    Distance matrix (angstroms):
                    1          2          3          4          5
     1  C    0.000000
     2  C    1.324524   0.000000
     3  H    1.087265   2.103827   0.000000
     4  H    1.087258   2.103823   1.861126   0.000000
     5  H    2.103833   1.087262   2.449152   3.076052   0.000000
     6  H    2.103827   1.087265   3.076053   2.449139   1.861123
                    6
     6  H    0.000000
 Stoichiometry    C2H4
 Framework group  C1[X(C2H4)]
 Deg. of freedom    12
 Full point group                 C1      NOp   1
 Largest Abelian subgroup         C1      NOp   1
 Largest concise Abelian subgroup C1      NOp   1
                         Standard orientation:                         
 ---------------------------------------------------------------------
 Center     Atomic      Atomic             Coordinates (Angstroms)
 Number     Number       Type             X           Y           Z
 ---------------------------------------------------------------------
      1          6           0        0.662263    0.000001    0.000000
      2          6           0       -0.662261   -0.000001    0.000000
      3          1           0        1.224572   -0.930565    0.000000
      4          1           0        1.224569    0.930560    0.000003
      5          1           0       -1.224580   -0.930558    0.000003
      6          1           0       -1.224570    0.930565    0.000000
 ---------------------------------------------------------------------
 Rotational constants (GHZ):    144.7709037     30.4970117     25.1904631
 Standard basis: 3-21G (6D, 7F)
 There are    26 symmetry adapted cartesian basis functions of A   symmetry.
 There are    26 symmetry adapted basis functions of A   symmetry.
    26 basis functions,    42 primitive gaussians,    26 cartesian basis functions
     8 alpha electrons        8 beta electrons
       nuclear repulsion energy        33.4453569118 Hartrees.
 NAtoms=    6 NActive=    6 NUniq=    6 SFac= 1.00D+00 NAtFMM=   60 NAOKFM=F Big=F
 Integral buffers will be    131072 words long.
 Raffenetti 2 integral format.
 Two-electron integral symmetry is turned on.
 One-electron integrals computed using PRISM.
 NBasis=    26 RedAO= T EigKep=  1.56D-02  NBF=    26
 NBsUse=    26 1.00D-06 EigRej= -1.00D+00 NBFU=    26
 ExpMin= 1.83D-01 ExpMax= 1.72D+02 ExpMxC= 1.72D+02 IAcc=1 IRadAn=         1 AccDes= 0.00D+00
 Harris functional with IExCor= 1009 and IRadAn=       1 diagonalized for initial guess.
 HarFok:  IExCor= 1009 AccDes= 0.00D+00 IRadAn=         1 IDoV= 1 UseB2=F ITyADJ=14
 ICtDFT=  3500011 ScaDFX=  1.000000  1.000000  1.000000  1.000000
 FoFCou: FMM=F IPFlag=           0 FMFlag=      100000 FMFlg1=           0
         NFxFlg=           0 DoJE=T BraDBF=F KetDBF=T FulRan=T
         wScrn=  0.000000 ICntrl=     500 IOpCl=  0 I1Cent=   200000004 NGrid=           0
         NMat0=    1 NMatS0=      1 NMatT0=    0 NMatD0=    1 NMtDS0=    0 NMtDT0=    0
 Petite list used in FoFCou.
 Keep R1 ints in memory in canonical form, NReq=943322.
 Requested convergence on RMS density matrix=1.00D-08 within 128 cycles.
 Requested convergence on MAX density matrix=1.00D-06.
 Requested convergence on             energy=1.00D-06.
 No special actions if energy rises.
 Integral accuracy reduced to 1.0D-05 until final iterations.
 Initial convergence to 1.0D-05 achieved.  Increase integral accuracy.
 SCF Done:  E(RM062X) =  -78.1099590092     A.U. after   12 cycles
            NFock= 12  Conv=0.23D-08     -V/T= 2.0090

 **********************************************************************

            Population analysis using the SCF density.

 **********************************************************************

 Orbital symmetries:
       Occupied  (A) (A) (A) (A) (A) (A) (A) (A)
       Virtual   (A) (A) (A) (A) (A) (A) (A) (A) (A) (A) (A) (A)
                 (A) (A) (A) (A) (A) (A)
 The electronic state is 1-A.
 Alpha  occ. eigenvalues --  -10.48460 -10.48389  -0.85698  -0.65223  -0.54103
 Alpha  occ. eigenvalues --   -0.48144  -0.41166  -0.32854
 Alpha virt. eigenvalues --    0.07053   0.19108   0.20523   0.23272   0.33027
 Alpha virt. eigenvalues --    0.41251   0.71209   0.76552   0.79096   0.86638
 Alpha virt. eigenvalues --    0.89846   0.92776   1.09474   1.13475   1.16587
 Alpha virt. eigenvalues --    1.43359   1.43697   1.72506
          Condensed to atoms (all electrons):
               1          2          3          4          5          6
     1  C    5.170731   0.549332   0.387825   0.387826  -0.048184  -0.048185
     2  C    0.549332   5.170731  -0.048185  -0.048185   0.387825   0.387825
     3  H    0.387825  -0.048185   0.486959  -0.024828  -0.004309   0.002866
     4  H    0.387826  -0.048185  -0.024828   0.486956   0.002866  -0.004309
     5  H   -0.048184   0.387825  -0.004309   0.002866   0.486958  -0.024829
     6  H   -0.048185   0.387825   0.002866  -0.004309  -0.024829   0.486960
 Mulliken charges:
               1
     1  C   -0.399345
     2  C   -0.399343
     3  H    0.199672
     4  H    0.199673
     5  H    0.199672
     6  H    0.199671
 Sum of Mulliken charges =   0.00000
 Mulliken charges with hydrogens summed into heavy atoms:
               1
     1  C    0.000000
     2  C    0.000000
 Electronic spatial extent (au):  <R**2>=             82.0143
 Charge=              0.0000 electrons
 Dipole moment (field-independent basis, Debye):
    X=              0.0000    Y=              0.0000    Z=              0.0000  Tot=              0.0000
 Quadrupole moment (field-independent basis, Debye-Ang):
   XX=            -12.0783   YY=            -12.0825   ZZ=            -15.4231
   XY=              0.0000   XZ=              0.0000   YZ=              0.0000
 Traceless Quadrupole moment (field-independent basis, Debye-Ang):
   XX=              1.1164   YY=              1.1121   ZZ=             -2.2285
   XY=              0.0000   XZ=              0.0000   YZ=              0.0000
 Octapole moment (field-independent basis, Debye-Ang**2):
  XXX=              0.0000  YYY=              0.0000  ZZZ=              0.0000  XYY=              0.0000
  XXY=              0.0000  XXZ=              0.0000  XZZ=              0.0000  YZZ=              0.0000
  YYZ=              0.0000  XYZ=              0.0000
 Hexadecapole moment (field-independent basis, Debye-Ang**3):
 XXXX=            -64.8468 YYYY=            -25.0513 ZZZZ=            -15.8596 XXXY=              0.0001
 XXXZ=              0.0000 YYYX=              0.0000 YYYZ=              0.0000 ZZZX=              0.0000
 ZZZY=              0.0000 XXYY=            -12.2717 XXZZ=            -14.5239 YYZZ=             -7.4830
 XXYZ=              0.0000 YYXZ=              0.0000 ZZXY=              0.0000
 N-N= 3.344535691183D+01 E-N=-2.472165472633D+02  KE= 7.741098224033D+01
 Calling FoFJK, ICntrl=      2127 FMM=F ISym2X=0 I1Cent= 0 IOpClX= 0 NMat=1 NMatS=1 NMatT=0.
 ***** Axes restored to original set *****
 -------------------------------------------------------------------
 Center     Atomic                   Forces (Hartrees/Bohr)
 Number     Number              X              Y              Z
 -------------------------------------------------------------------
      1        6          -0.003320007   -0.000922607    0.001298579
      2        6           0.003323537    0.000921745   -0.001298299
      3        1          -0.002155034    0.001366837   -0.001593757
      4        1           0.000271238   -0.001885533    0.002325158
      5        1          -0.000274282    0.001886290   -0.002325221
      6        1           0.002154549   -0.001366732    0.001593540
 -------------------------------------------------------------------
 Cartesian Forces:  Max     0.003323537 RMS     0.001875545

 GradGradGradGradGradGradGradGradGradGradGradGradGradGradGradGradGradGrad
 Berny optimization.
 FormGI is forming the generalized inverse of G from B-inverse, IUseBI=4.
 Internal  Forces:  Max     0.005768687 RMS     0.002287031
 Search for a local minimum.
 Step number   1 out of a maximum of   25
 All quantities printed in internal units (Hartrees-Bohrs-Radians)
 Mixed Optimization -- RFO/linear search
 Second derivative matrix not updated -- first step.
 The second derivative matrix:
                          R1        R2        R3        R4        R5
           R1           0.60818
           R2           0.00000   0.35131
           R3           0.00000   0.00000   0.35131
           R4           0.00000   0.00000   0.00000   0.35131
           R5           0.00000   0.00000   0.00000   0.00000   0.35131
           A1           0.00000   0.00000   0.00000   0.00000   0.00000
           A2           0.00000   0.00000   0.00000   0.00000   0.00000
           A3           0.00000   0.00000   0.00000   0.00000   0.00000
           A4           0.00000   0.00000   0.00000   0.00000   0.00000
           A5           0.00000   0.00000   0.00000   0.00000   0.00000
           A6           0.00000   0.00000   0.00000   0.00000   0.00000
           D1           0.00000   0.00000   0.00000   0.00000   0.00000
           D2           0.00000   0.00000   0.00000   0.00000   0.00000
           D3           0.00000   0.00000   0.00000   0.00000   0.00000
           D4           0.00000   0.00000   0.00000   0.00000   0.00000
                          A1        A2        A3        A4        A5
           A1           0.16000
           A2           0.00000   0.16000
           A3           0.00000   0.00000   0.16000
           A4           0.00000   0.00000   0.00000   0.16000
           A5           0.00000   0.00000   0.00000   0.00000   0.16000
           A6           0.00000   0.00000   0.00000   0.00000   0.00000
           D1           0.00000   0.00000   0.00000   0.00000   0.00000
           D2           0.00000   0.00000   0.00000   0.00000   0.00000
           D3           0.00000   0.00000   0.00000   0.00000   0.00000
           D4           0.00000   0.00000   0.00000   0.00000   0.00000
                          A6        D1        D2        D3        D4
           A6           0.16000
           D1           0.00000   0.03087
           D2           0.00000   0.00000   0.03087
           D3           0.00000   0.00000   0.00000   0.03087
           D4           0.00000   0.00000   0.00000   0.00000   0.03087
 ITU=  0
     Eigenvalues ---    0.03087   0.03087   0.03087   0.16000   0.16000
     Eigenvalues ---    0.16000   0.16000   0.35131   0.35131   0.35131
     Eigenvalues ---    0.35131   0.60818
 RFO step:  Lambda=-2.88807777D-04 EMin= 3.08716499D-02
 Linear search not attempted -- first point.
 Iteration  1 RMS(Cart)=  0.01294775 RMS(Int)=  0.00005803
 Iteration  2 RMS(Cart)=  0.00005774 RMS(Int)=  0.00000000
 Iteration  3 RMS(Cart)=  0.00000000 RMS(Int)=  0.00000000
 Variable       Old X    -DE/DX   Delta X   Delta X   Delta X     New X
                                 (Linear)    (Quad)   (Total)
    R1        2.50299   0.00577   0.00000   0.00948   0.00948   2.51247
    R2        2.05463  -0.00188   0.00000  -0.00534  -0.00534   2.04929
    R3        2.05462  -0.00187   0.00000  -0.00533  -0.00533   2.04929
    R4        2.05463  -0.00188   0.00000  -0.00533  -0.00533   2.04929
    R5        2.05463  -0.00188   0.00000  -0.00534  -0.00534   2.04930
    A1        2.11435   0.00161   0.00000   0.01005   0.01005   2.12439
    A2        2.11435   0.00161   0.00000   0.01005   0.01005   2.12439
    A3        2.05449  -0.00322   0.00000  -0.02010  -0.02010   2.03440
    A4        2.11436   0.00161   0.00000   0.01004   0.01004   2.12440
    A5        2.11435   0.00161   0.00000   0.01005   0.01005   2.12440
    A6        2.05448  -0.00322   0.00000  -0.02009  -0.02009   2.03439
    D1        0.00000   0.00000   0.00000   0.00000   0.00000   0.00000
    D2        3.14159   0.00000   0.00000   0.00000   0.00000  -3.14159
    D3       -3.14159   0.00000   0.00000  -0.00001  -0.00001   3.14159
    D4        0.00000   0.00000   0.00000   0.00000   0.00000   0.00000
         Item               Value     Threshold  Converged?
 Maximum Force            0.005769     0.000450     NO 
 RMS     Force            0.002287     0.000300     NO 
 Maximum Displacement     0.024224     0.001800     NO 
 RMS     Displacement     0.012935     0.001200     NO 
 Predicted change in Energy=-1.446085D-04
 GradGradGradGradGradGradGradGradGradGradGradGradGradGradGradGradGradGrad

                          Input orientation:                          
 ---------------------------------------------------------------------
 Center     Atomic      Atomic             Coordinates (Angstroms)
 Number     Number       Type             X           Y           Z
 ---------------------------------------------------------------------
      1          6           0       -0.748121   -1.173178    1.558712
      2          6           0        0.451323   -0.841123    1.091005
      3          1           0       -0.865425   -1.847366    2.399974
      4          1           0       -1.659530   -0.783780    1.118585
      5          1           0        1.362735   -1.230518    1.531131
      6          1           0        0.568629   -0.166935    0.249744
 ---------------------------------------------------------------------
                    Distance matrix (angstroms):
                    1          2          3          4          5
     1  C    0.000000
     2  C    1.329540   0.000000
     3  H    1.084440   2.111813   0.000000
     4  H    1.084440   2.111813   1.844932   0.000000
     5  H    2.111814   1.084440   2.469835   3.082832   0.000000
     6  H    2.111813   1.084440   3.082832   2.469834   1.844930
                    6
     6  H    0.000000
 Stoichiometry    C2H4
 Framework group  C1[X(C2H4)]
 Deg. of freedom    12
 Full point group                 C1      NOp   1
 Largest Abelian subgroup         C1      NOp   1
 Largest concise Abelian subgroup C1      NOp   1
                         Standard orientation:                         
 ---------------------------------------------------------------------
 Center     Atomic      Atomic             Coordinates (Angstroms)
 Number     Number       Type             X           Y           Z
 ---------------------------------------------------------------------
      1          6           0        0.664770    0.000000    0.000000
      2          6           0       -0.664770    0.000000    0.000000
      3          1           0        1.234916   -0.922466   -0.000001
      4          1           0        1.234917    0.922466   -0.000001
      5          1           0       -1.234919   -0.922464   -0.000001
      6          1           0       -1.234917    0.922466   -0.000001
 ---------------------------------------------------------------------
 Rotational constants (GHZ):    147.3233708     30.1648898     25.0382376
 Standard basis: 3-21G (6D, 7F)
 There are    26 symmetry adapted cartesian basis functions of A   symmetry.
 There are    26 symmetry adapted basis functions of A   symmetry.
    26 basis functions,    42 primitive gaussians,    26 cartesian basis functions
     8 alpha electrons        8 beta electrons
       nuclear repulsion energy        33.3992723134 Hartrees.
 NAtoms=    6 NActive=    6 NUniq=    6 SFac= 1.00D+00 NAtFMM=   60 NAOKFM=F Big=F
 Integral buffers will be    131072 words long.
 Raffenetti 2 integral format.
 Two-electron integral symmetry is turned on.
 One-electron integrals computed using PRISM.
 NBasis=    26 RedAO= T EigKep=  1.60D-02  NBF=    26
 NBsUse=    26 1.00D-06 EigRej= -1.00D+00 NBFU=    26
 Initial guess from the checkpoint file:  "/scr/Gau-30966.chk"
 B after Tr=     0.000000    0.000000    0.000000
         Rot=    1.000000    0.000000    0.000000    0.000000 Ang=   0.00 deg.
 ExpMin= 1.83D-01 ExpMax= 1.72D+02 ExpMxC= 1.72D+02 IAcc=1 IRadAn=         1 AccDes= 0.00D+00
 Harris functional with IExCor= 1009 and IRadAn=       1 diagonalized for initial guess.
 HarFok:  IExCor= 1009 AccDes= 0.00D+00 IRadAn=         1 IDoV= 1 UseB2=F ITyADJ=14
 ICtDFT=  3500011 ScaDFX=  1.000000  1.000000  1.000000  1.000000
 FoFCou: FMM=F IPFlag=           0 FMFlag=      100000 FMFlg1=           0
         NFxFlg=           0 DoJE=T BraDBF=F KetDBF=T FulRan=T
         wScrn=  0.000000 ICntrl=     500 IOpCl=  0 I1Cent=   200000004 NGrid=           0
         NMat0=    1 NMatS0=      1 NMatT0=    0 NMatD0=    1 NMtDS0=    0 NMtDT0=    0
 Petite list used in FoFCou.
 Keep R1 ints in memory in canonical form, NReq=943322.
 Requested convergence on RMS density matrix=1.00D-08 within 128 cycles.
 Requested convergence on MAX density matrix=1.00D-06.
 Requested convergence on             energy=1.00D-06.
 No special actions if energy rises.
 Integral accuracy reduced to 1.0D-05 until final iterations.
 Initial convergence to 1.0D-05 achieved.  Increase integral accuracy.
 SCF Done:  E(RM062X) =  -78.1101060857     A.U. after   11 cycles
            NFock= 11  Conv=0.27D-08     -V/T= 2.0091
 Calling FoFJK, ICntrl=      2127 FMM=F ISym2X=0 I1Cent= 0 IOpClX= 0 NMat=1 NMatS=1 NMatT=0.
 ***** Axes restored to original set *****
 -------------------------------------------------------------------
 Center     Atomic                   Forces (Hartrees/Bohr)
 Number     Number              X              Y              Z
 -------------------------------------------------------------------
      1        6           0.002515394    0.000696319   -0.000980554
      2        6          -0.002514988   -0.000695820    0.000980364
      3        1          -0.000368336   -0.000111242    0.000155030
      4        1          -0.000379757   -0.000095934    0.000136539
      5        1           0.000379619    0.000095581   -0.000136368
      6        1           0.000368067    0.000111095   -0.000155011
 -------------------------------------------------------------------
 Cartesian Forces:  Max     0.002515394 RMS     0.000949615

 GradGradGradGradGradGradGradGradGradGradGradGradGradGradGradGradGradGrad
 Berny optimization.
 Using GEDIIS/GDIIS optimizer.
 FormGI is forming the generalized inverse of G from B-inverse, IUseBI=4.
 Internal  Forces:  Max     0.001958907 RMS     0.000560720
 Search for a local minimum.
 Step number   2 out of a maximum of   25
 All quantities printed in internal units (Hartrees-Bohrs-Radians)
 Mixed Optimization -- En-DIIS/RFO-DIIS
 Update second derivatives using D2CorX and points    1    2
 DE= -1.47D-04 DEPred=-1.45D-04 R= 1.02D+00
 TightC=F SS=  1.41D+00  RLast= 3.76D-02 DXNew= 5.0454D-01 1.1284D-01
 Trust test= 1.02D+00 RLast= 3.76D-02 DXMaxT set to 3.00D-01
 The second derivative matrix:
                          R1        R2        R3        R4        R5
           R1           0.70330
           R2          -0.01985   0.35474
           R3          -0.01982   0.00343   0.35474
           R4          -0.01984   0.00343   0.00343   0.35474
           R5          -0.01985   0.00343   0.00343   0.00343   0.35474
           A1           0.00528   0.00025   0.00025   0.00025   0.00026
           A2           0.00528   0.00025   0.00025   0.00025   0.00025
           A3          -0.01056  -0.00051  -0.00050  -0.00051  -0.00051
           A4           0.00528   0.00025   0.00025   0.00025   0.00025
           A5           0.00528   0.00025   0.00025   0.00025   0.00025
           A6          -0.01056  -0.00051  -0.00050  -0.00050  -0.00051
           D1           0.00000   0.00000   0.00000   0.00000   0.00000
           D2           0.00000   0.00000   0.00000   0.00000   0.00000
           D3          -0.00001   0.00000   0.00000   0.00000   0.00000
           D4           0.00000   0.00000   0.00000   0.00000   0.00000
                          A1        A2        A3        A4        A5
           A1           0.15769
           A2          -0.00231   0.15769
           A3           0.00461   0.00461   0.15078
           A4          -0.00230  -0.00230   0.00461   0.15770
           A5          -0.00231  -0.00231   0.00461  -0.00230   0.15769
           A6           0.00461   0.00461  -0.00922   0.00460   0.00461
           D1           0.00000   0.00000   0.00000   0.00000   0.00000
           D2           0.00000   0.00000   0.00000   0.00000   0.00000
           D3           0.00000   0.00000   0.00000   0.00000   0.00000
           D4           0.00000   0.00000   0.00000   0.00000   0.00000
                          A6        D1        D2        D3        D4
           A6           0.15079
           D1           0.00000   0.03087
           D2           0.00000   0.00000   0.03087
           D3           0.00000   0.00000   0.00000   0.03087
           D4           0.00000   0.00000   0.00000   0.00000   0.03087
 ITU=  1  0
 Use linear search instead of GDIIS.
     Eigenvalues ---    0.03087   0.03087   0.03087   0.13172   0.16000
     Eigenvalues ---    0.16000   0.16000   0.35131   0.35131   0.35131
     Eigenvalues ---    0.36051   0.70846
 RFO step:  Lambda=-1.13846425D-05 EMin= 3.08716499D-02
 Quartic linear search produced a step of  0.01752.
 Iteration  1 RMS(Cart)=  0.00147499 RMS(Int)=  0.00000194
 Iteration  2 RMS(Cart)=  0.00000195 RMS(Int)=  0.00000000
 Iteration  3 RMS(Cart)=  0.00000000 RMS(Int)=  0.00000000
 Variable       Old X    -DE/DX   Delta X   Delta X   Delta X     New X
                                 (Linear)    (Quad)   (Total)
    R1        2.51247  -0.00196   0.00017  -0.00307  -0.00290   2.50956
    R2        2.04929   0.00023  -0.00009   0.00055   0.00045   2.04975
    R3        2.04929   0.00023  -0.00009   0.00055   0.00046   2.04975
    R4        2.04929   0.00023  -0.00009   0.00055   0.00045   2.04975
    R5        2.04930   0.00023  -0.00009   0.00055   0.00045   2.04975
    A1        2.12439   0.00024   0.00018   0.00172   0.00190   2.12629
    A2        2.12439   0.00024   0.00018   0.00172   0.00190   2.12629
    A3        2.03440  -0.00047  -0.00035  -0.00344  -0.00379   2.03061
    A4        2.12440   0.00024   0.00018   0.00172   0.00189   2.12629
    A5        2.12440   0.00024   0.00018   0.00172   0.00190   2.12629
    A6        2.03439  -0.00047  -0.00035  -0.00344  -0.00379   2.03060
    D1        0.00000   0.00000   0.00000   0.00000   0.00000   0.00000
    D2       -3.14159   0.00000   0.00000   0.00000   0.00000   3.14159
    D3        3.14159   0.00000   0.00000   0.00000   0.00000  -3.14159
    D4        0.00000   0.00000   0.00000   0.00000   0.00000   0.00000
         Item               Value     Threshold  Converged?
 Maximum Force            0.001959     0.000450     NO 
 RMS     Force            0.000561     0.000300     NO 
 Maximum Displacement     0.002598     0.001800     NO 
 RMS     Displacement     0.001476     0.001200     NO 
 Predicted change in Energy=-5.738425D-06
 GradGradGradGradGradGradGradGradGradGradGradGradGradGradGradGradGradGrad

                          Input orientation:                          
 ---------------------------------------------------------------------
 Center     Atomic      Atomic             Coordinates (Angstroms)
 Number     Number       Type             X           Y           Z
 ---------------------------------------------------------------------
      1          6           0       -0.747427   -1.172986    1.558442
      2          6           0        0.450630   -0.841314    1.091275
      3          1           0       -0.866800   -1.847136    2.399753
      4          1           0       -1.660150   -0.784563    1.119583
      5          1           0        1.363353   -1.229737    1.530133
      6          1           0        0.570004   -0.167164    0.249964
 ---------------------------------------------------------------------
                    Distance matrix (angstroms):
                    1          2          3          4          5
     1  C    0.000000
     2  C    1.328003   0.000000
     3  H    1.084681   2.111733   0.000000
     4  H    1.084681   2.111733   1.843177   0.000000
     5  H    2.111733   1.084681   2.472044   3.083554   0.000000
     6  H    2.111733   1.084681   3.083554   2.472044   1.843176
                    6
     6  H    0.000000
 Stoichiometry    C2H4
 Framework group  C1[X(C2H4)]
 Deg. of freedom    12
 Full point group                 C1      NOp   1
 Largest Abelian subgroup         C1      NOp   1
 Largest concise Abelian subgroup C1      NOp   1
                         Standard orientation:                         
 ---------------------------------------------------------------------
 Center     Atomic      Atomic             Coordinates (Angstroms)
 Number     Number       Type             X           Y           Z
 ---------------------------------------------------------------------
      1          6           0        0.664002    0.000000    0.000000
      2          6           0       -0.664002    0.000000    0.000000
      3          1           0        1.236022   -0.921588    0.000001
      4          1           0        1.236022    0.921588    0.000000
      5          1           0       -1.236022   -0.921588    0.000000
      6          1           0       -1.236022    0.921588    0.000001
 ---------------------------------------------------------------------
 Rotational constants (GHZ):    147.6040573     30.1892213     25.0631046
 Standard basis: 3-21G (6D, 7F)
 There are    26 symmetry adapted cartesian basis functions of A   symmetry.
 There are    26 symmetry adapted basis functions of A   symmetry.
    26 basis functions,    42 primitive gaussians,    26 cartesian basis functions
     8 alpha electrons        8 beta electrons
       nuclear repulsion energy        33.4135719697 Hartrees.
 NAtoms=    6 NActive=    6 NUniq=    6 SFac= 1.00D+00 NAtFMM=   60 NAOKFM=F Big=F
 Integral buffers will be    131072 words long.
 Raffenetti 2 integral format.
 Two-electron integral symmetry is turned on.
 One-electron integrals computed using PRISM.
 NBasis=    26 RedAO= T EigKep=  1.59D-02  NBF=    26
 NBsUse=    26 1.00D-06 EigRej= -1.00D+00 NBFU=    26
 Initial guess from the checkpoint file:  "/scr/Gau-30966.chk"
 B after Tr=     0.000000    0.000000    0.000000
         Rot=    1.000000    0.000000    0.000000    0.000000 Ang=   0.00 deg.
 Keep R1 ints in memory in canonical form, NReq=943322.
 Requested convergence on RMS density matrix=1.00D-08 within 128 cycles.
 Requested convergence on MAX density matrix=1.00D-06.
 Requested convergence on             energy=1.00D-06.
 No special actions if energy rises.
 SCF Done:  E(RM062X) =  -78.1101129464     A.U. after    6 cycles
            NFock=  6  Conv=0.21D-08     -V/T= 2.0090
 Calling FoFJK, ICntrl=      2127 FMM=F ISym2X=0 I1Cent= 0 IOpClX= 0 NMat=1 NMatS=1 NMatT=0.
 ***** Axes restored to original set *****
 -------------------------------------------------------------------
 Center     Atomic                   Forces (Hartrees/Bohr)
 Number     Number              X              Y              Z
 -------------------------------------------------------------------
      1        6           0.000524922    0.000145356   -0.000204881
      2        6          -0.000524880   -0.000145412    0.000204653
      3        1          -0.000079235   -0.000070276    0.000090903
      4        1          -0.000138993    0.000009842   -0.000005635
      5        1           0.000139017   -0.000009837    0.000005765
      6        1           0.000079169    0.000070327   -0.000090805
 -------------------------------------------------------------------
 Cartesian Forces:  Max     0.000524922 RMS     0.000204806

 GradGradGradGradGradGradGradGradGradGradGradGradGradGradGradGradGradGrad
 Berny optimization.
 Using GEDIIS/GDIIS optimizer.
 FormGI is forming the generalized inverse of G from B-inverse, IUseBI=4.
 Internal  Forces:  Max     0.000339971 RMS     0.000115593
 Search for a local minimum.
 Step number   3 out of a maximum of   25
 All quantities printed in internal units (Hartrees-Bohrs-Radians)
 Mixed Optimization -- En-DIIS/RFO-DIIS
 Swapping is turned off.
 Update second derivatives using D2CorX and points    1    2    3
 DE= -6.86D-06 DEPred=-5.74D-06 R= 1.20D+00
 TightC=F SS=  1.41D+00  RLast= 7.23D-03 DXNew= 5.0454D-01 2.1705D-02
 Trust test= 1.20D+00 RLast= 7.23D-03 DXMaxT set to 3.00D-01
 The second derivative matrix:
                          R1        R2        R3        R4        R5
           R1           0.65127
           R2          -0.00153   0.35262
           R3          -0.00152   0.00131   0.35262
           R4          -0.00154   0.00131   0.00131   0.35262
           R5          -0.00154   0.00132   0.00131   0.00131   0.35262
           A1           0.01213  -0.00265  -0.00265  -0.00265  -0.00264
           A2           0.01213  -0.00265  -0.00264  -0.00264  -0.00264
           A3          -0.02426   0.00529   0.00529   0.00529   0.00529
           A4           0.01212  -0.00264  -0.00264  -0.00264  -0.00264
           A5           0.01212  -0.00265  -0.00265  -0.00265  -0.00264
           A6          -0.02425   0.00529   0.00529   0.00529   0.00528
           D1           0.00000   0.00000   0.00000   0.00000   0.00000
           D2           0.00002   0.00000   0.00000   0.00000   0.00000
           D3          -0.00002   0.00000   0.00000   0.00000   0.00000
           D4           0.00000   0.00000   0.00000   0.00000   0.00000
                          A1        A2        A3        A4        A5
           A1           0.15682
           A2          -0.00318   0.15682
           A3           0.00636   0.00636   0.14728
           A4          -0.00318  -0.00318   0.00635   0.15683
           A5          -0.00318  -0.00318   0.00636  -0.00318   0.15682
           A6           0.00636   0.00636  -0.01271   0.00635   0.00635
           D1           0.00000   0.00000   0.00000   0.00000   0.00000
           D2           0.00000   0.00000   0.00000   0.00000   0.00000
           D3           0.00000   0.00000   0.00000   0.00000   0.00000
           D4           0.00000   0.00000   0.00000   0.00000   0.00000
                          A6        D1        D2        D3        D4
           A6           0.14730
           D1           0.00000   0.03087
           D2           0.00000   0.00000   0.03087
           D3           0.00000   0.00000   0.00000   0.03087
           D4           0.00000   0.00000   0.00000   0.00000   0.03087
 ITU=  1  1  0
     Eigenvalues ---    0.03087   0.03087   0.03087   0.11719   0.16000
     Eigenvalues ---    0.16000   0.16000   0.35131   0.35131   0.35131
     Eigenvalues ---    0.35785   0.65465
 En-DIIS/RFO-DIIS IScMMF=        0 using points:     3    2
 RFO step:  Lambda=-3.37742101D-07.
 DidBck=F Rises=F RFO-DIIS coefs:    1.24232   -0.24232
 Iteration  1 RMS(Cart)=  0.00039101 RMS(Int)=  0.00000014
 Iteration  2 RMS(Cart)=  0.00000015 RMS(Int)=  0.00000000
 Variable       Old X    -DE/DX   Delta X   Delta X   Delta X     New X
                                 (Linear)    (Quad)   (Total)
    R1        2.50956  -0.00034  -0.00070   0.00008  -0.00062   2.50894
    R2        2.04975   0.00012   0.00011   0.00027   0.00038   2.05013
    R3        2.04975   0.00012   0.00011   0.00027   0.00038   2.05013
    R4        2.04975   0.00012   0.00011   0.00027   0.00038   2.05013
    R5        2.04975   0.00012   0.00011   0.00027   0.00038   2.05013
    A1        2.12629   0.00005   0.00046   0.00001   0.00047   2.12676
    A2        2.12629   0.00005   0.00046   0.00001   0.00047   2.12676
    A3        2.03061  -0.00009  -0.00092  -0.00001  -0.00093   2.02967
    A4        2.12629   0.00005   0.00046   0.00001   0.00047   2.12676
    A5        2.12629   0.00005   0.00046   0.00001   0.00047   2.12676
    A6        2.03060  -0.00009  -0.00092  -0.00001  -0.00093   2.02967
    D1        0.00000   0.00000   0.00000   0.00000   0.00000   0.00000
    D2        3.14159   0.00000   0.00000   0.00000   0.00000  -3.14159
    D3       -3.14159   0.00000   0.00000   0.00000   0.00000   3.14159
    D4        0.00000   0.00000   0.00000   0.00000   0.00000   0.00000
         Item               Value     Threshold  Converged?
 Maximum Force            0.000340     0.000450     YES
 RMS     Force            0.000116     0.000300     YES
 Maximum Displacement     0.000710     0.001800     YES
 RMS     Displacement     0.000391     0.001200     YES
 Predicted change in Energy=-3.262664D-07
 Optimization completed.
    -- Stationary point found.
                           ----------------------------
                           !   Optimized Parameters   !
                           ! (Angstroms and Degrees)  !
 --------------------------                            --------------------------
 ! Name  Definition              Value          Derivative Info.                !
 --------------------------------------------------------------------------------
 ! R1    R(1,2)                  1.328          -DE/DX =   -0.0003              !
 ! R2    R(1,3)                  1.0847         -DE/DX =    0.0001              !
 ! R3    R(1,4)                  1.0847         -DE/DX =    0.0001              !
 ! R4    R(2,5)                  1.0847         -DE/DX =    0.0001              !
 ! R5    R(2,6)                  1.0847         -DE/DX =    0.0001              !
 ! A1    A(2,1,3)              121.8275         -DE/DX =    0.0                 !
 ! A2    A(2,1,4)              121.8274         -DE/DX =    0.0                 !
 ! A3    A(3,1,4)              116.3451         -DE/DX =   -0.0001              !
 ! A4    A(1,2,5)              121.8275         -DE/DX =    0.0                 !
 ! A5    A(1,2,6)              121.8275         -DE/DX =    0.0                 !
 ! A6    A(5,2,6)              116.3451         -DE/DX =   -0.0001              !
 ! D1    D(3,1,2,5)              0.0            -DE/DX =    0.0                 !
 ! D2    D(3,1,2,6)           -180.0001         -DE/DX =    0.0                 !
 ! D3    D(4,1,2,5)            180.0001         -DE/DX =    0.0                 !
 ! D4    D(4,1,2,6)              0.0            -DE/DX =    0.0                 !
 --------------------------------------------------------------------------------
 GradGradGradGradGradGradGradGradGradGradGradGradGradGradGradGradGradGrad

                          Input orientation:                          
 ---------------------------------------------------------------------
 Center     Atomic      Atomic             Coordinates (Angstroms)
 Number     Number       Type             X           Y           Z
 ---------------------------------------------------------------------
      1          6           0       -0.747427   -1.172986    1.558442
      2          6           0        0.450630   -0.841314    1.091275
      3          1           0       -0.866800   -1.847136    2.399753
      4          1           0       -1.660150   -0.784563    1.119583
      5          1           0        1.363353   -1.229737    1.530133
      6          1           0        0.570004   -0.167164    0.249964
 ---------------------------------------------------------------------
                    Distance matrix (angstroms):
                    1          2          3          4          5
     1  C    0.000000
     2  C    1.328003   0.000000
     3  H    1.084681   2.111733   0.000000
     4  H    1.084681   2.111733   1.843177   0.000000
     5  H    2.111733   1.084681   2.472044   3.083554   0.000000
     6  H    2.111733   1.084681   3.083554   2.472044   1.843176
                    6
     6  H    0.000000
 Stoichiometry    C2H4
 Framework group  C1[X(C2H4)]
 Deg. of freedom    12
 Full point group                 C1      NOp   1
 Largest Abelian subgroup         C1      NOp   1
 Largest concise Abelian subgroup C1      NOp   1
                         Standard orientation:                         
 ---------------------------------------------------------------------
 Center     Atomic      Atomic             Coordinates (Angstroms)
 Number     Number       Type             X           Y           Z
 ---------------------------------------------------------------------
      1          6           0        0.664002    0.000000    0.000000
      2          6           0       -0.664002    0.000000    0.000000
      3          1           0        1.236022   -0.921588    0.000001
      4          1           0        1.236022    0.921588    0.000000
      5          1           0       -1.236022   -0.921588    0.000000
      6          1           0       -1.236022    0.921588    0.000001
 ---------------------------------------------------------------------
 Rotational constants (GHZ):    147.6040573     30.1892213     25.0631046

 **********************************************************************

            Population analysis using the SCF density.

 **********************************************************************

 Orbital symmetries:
       Occupied  (A) (A) (A) (A) (A) (A) (A) (A)
       Virtual   (A) (A) (A) (A) (A) (A) (A) (A) (A) (A) (A) (A)
                 (A) (A) (A) (A) (A) (A)
 The electronic state is 1-A.
 Alpha  occ. eigenvalues --  -10.48499 -10.48426  -0.85577  -0.65521  -0.53892
 Alpha  occ. eigenvalues --   -0.48434  -0.41131  -0.32793
 Alpha virt. eigenvalues --    0.06939   0.19406   0.20543   0.23249   0.33043
 Alpha virt. eigenvalues --    0.41328   0.71631   0.75773   0.79136   0.86577
 Alpha virt. eigenvalues --    0.89439   0.93206   1.09556   1.13827   1.16830
 Alpha virt. eigenvalues --    1.41893   1.43577   1.72011
          Condensed to atoms (all electrons):
               1          2          3          4          5          6
     1  C    5.164981   0.554594   0.387032   0.387032  -0.046729  -0.046729
     2  C    0.554594   5.164981  -0.046729  -0.046729   0.387032   0.387032
     3  H    0.387032  -0.046729   0.487468  -0.026473  -0.004186   0.002797
     4  H    0.387032  -0.046729  -0.026473   0.487468   0.002797  -0.004186
     5  H   -0.046729   0.387032  -0.004186   0.002797   0.487468  -0.026473
     6  H   -0.046729   0.387032   0.002797  -0.004186  -0.026473   0.487468
 Mulliken charges:
               1
     1  C   -0.400182
     2  C   -0.400181
     3  H    0.200091
     4  H    0.200091
     5  H    0.200091
     6  H    0.200091
 Sum of Mulliken charges =   0.00000
 Mulliken charges with hydrogens summed into heavy atoms:
               1
     1  C    0.000000
     2  C    0.000000
 Electronic spatial extent (au):  <R**2>=             82.2446
 Charge=              0.0000 electrons
 Dipole moment (field-independent basis, Debye):
    X=              0.0000    Y=              0.0000    Z=              0.0000  Tot=              0.0000
 Quadrupole moment (field-independent basis, Debye-Ang):
   XX=            -11.9579   YY=            -12.1634   ZZ=            -15.4175
   XY=              0.0000   XZ=              0.0000   YZ=              0.0000
 Traceless Quadrupole moment (field-independent basis, Debye-Ang):
   XX=              1.2217   YY=              1.0163   ZZ=             -2.2379
   XY=              0.0000   XZ=              0.0000   YZ=              0.0000
 Octapole moment (field-independent basis, Debye-Ang**2):
  XXX=              0.0000  YYY=              0.0000  ZZZ=              0.0000  XYY=              0.0000
  XXY=              0.0000  XXZ=              0.0000  XZZ=              0.0000  YZZ=              0.0000
  YYZ=              0.0000  XYZ=              0.0000
 Hexadecapole moment (field-independent basis, Debye-Ang**3):
 XXXX=            -64.9338 YYYY=            -24.9671 ZZZZ=            -15.8552 XXXY=              0.0000
 XXXZ=              0.0000 YYYX=              0.0000 YYYZ=              0.0000 ZZZX=              0.0000
 ZZZY=              0.0000 XXYY=            -12.3225 XXZZ=            -14.6025 YYZZ=             -7.4372
 XXYZ=              0.0000 YYXZ=              0.0000 ZZXY=              0.0000
 N-N= 3.341357196975D+01 E-N=-2.471486550335D+02  KE= 7.741124101198D+01
 1\1\GINC-N0292\FOpt\RM062X\3-21G\C2H4\TAIYUPAN\24-Feb-2017\0\\#n M062X
 /3-21G Opt\\Title\\0,1\C,-0.7474270972,-1.1729855452,1.558442266\C,0.4
 506302732,-0.8413138321,1.091275128\H,-0.8668002311,-1.8471360254,2.39
 97526915\H,-1.6601498966,-0.7845626464,1.1195832249\H,1.3633532294,-1.
 2297374693,1.5301329577\H,0.5700037223,-0.1671644817,0.2499637318\\Ver
 sion=ES64L-G09RevE.01\State=1-A\HF=-78.1101129\RMSD=2.086e-09\RMSF=2.0
 48e-04\Dipole=0.0000001,-0.0000006,-0.0000006\Quadrupole=0.8777788,-0.
 6993389,-0.1784399,-0.0208036,-0.0930113,-1.1947087\PG=C01 [X(C2H4)]\\
 @


 IT IS DOUBTED WHETHER A MAN EVER BRINGS HIS FACULTIES TO BEAR WITH THEIR FULL FORCE
 ON A SUBJECT UNTIL HE WRITES UPON IT.

                          -- CICERO
 Job cpu time:       0 days  0 hours  0 minutes 34.6 seconds.
 File lengths (MBytes):  RWF=      5 Int=      0 D2E=      0 Chk=      1 Scr=      1
 Normal termination of Gaussian 09 at Fri Feb 24 00:15:48 2017.
