 Entering Gaussian System, Link 0=g09
 Input=CH2_B3LYP_3G.com
 Output=CH2_B3LYP_3G.log
 Initial command:
 /sw/contrib/gaussian/g09/E01/g09/l1.exe "/scr/Gau-16830.inp" -scrdir="/scr/"
 Entering Link 1 = /sw/contrib/gaussian/g09/E01/g09/l1.exe PID=     16831.
  
 Copyright (c) 1988,1990,1992,1993,1995,1998,2003,2009,2015,
            Gaussian, Inc.  All Rights Reserved.
  
 This is part of the Gaussian(R) 09 program.  It is based on
 the Gaussian(R) 03 system (copyright 2003, Gaussian, Inc.),
 the Gaussian(R) 98 system (copyright 1998, Gaussian, Inc.),
 the Gaussian(R) 94 system (copyright 1995, Gaussian, Inc.),
 the Gaussian 92(TM) system (copyright 1992, Gaussian, Inc.),
 the Gaussian 90(TM) system (copyright 1990, Gaussian, Inc.),
 the Gaussian 88(TM) system (copyright 1988, Gaussian, Inc.),
 the Gaussian 86(TM) system (copyright 1986, Carnegie Mellon
 University), and the Gaussian 82(TM) system (copyright 1983,
 Carnegie Mellon University). Gaussian is a federally registered
 trademark of Gaussian, Inc.
  
 This software contains proprietary and confidential information,
 including trade secrets, belonging to Gaussian, Inc.
  
 This software is provided under written license and may be
 used, copied, transmitted, or stored only in accord with that
 written license.
  
 The following legend is applicable only to US Government
 contracts under FAR:
  
                    RESTRICTED RIGHTS LEGEND
  
 Use, reproduction and disclosure by the US Government is
 subject to restrictions as set forth in subparagraphs (a)
 and (c) of the Commercial Computer Software - Restricted
 Rights clause in FAR 52.227-19.
  
 Gaussian, Inc.
 340 Quinnipiac St., Bldg. 40, Wallingford CT 06492
  
  
 ---------------------------------------------------------------
 Warning -- This program may not be used in any manner that
 competes with the business of Gaussian, Inc. or will provide
 assistance to any competitor of Gaussian, Inc.  The licensee
 of this program is prohibited from giving any competitor of
 Gaussian, Inc. access to this program.  By using this program,
 the user acknowledges that Gaussian, Inc. is engaged in the
 business of creating and licensing software in the field of
 computational chemistry and represents and warrants to the
 licensee that it is not a competitor of Gaussian, Inc. and that
 it will not use this program in any manner prohibited above.
 ---------------------------------------------------------------
  

 Cite this work as:
 Gaussian 09, Revision E.01,
 M. J. Frisch, G. W. Trucks, H. B. Schlegel, G. E. Scuseria, 
 M. A. Robb, J. R. Cheeseman, G. Scalmani, V. Barone, B. Mennucci, 
 G. A. Petersson, H. Nakatsuji, M. Caricato, X. Li, H. P. Hratchian, 
 A. F. Izmaylov, J. Bloino, G. Zheng, J. L. Sonnenberg, M. Hada, 
 M. Ehara, K. Toyota, R. Fukuda, J. Hasegawa, M. Ishida, T. Nakajima, 
 Y. Honda, O. Kitao, H. Nakai, T. Vreven, J. A. Montgomery, Jr., 
 J. E. Peralta, F. Ogliaro, M. Bearpark, J. J. Heyd, E. Brothers, 
 K. N. Kudin, V. N. Staroverov, T. Keith, R. Kobayashi, J. Normand, 
 K. Raghavachari, A. Rendell, J. C. Burant, S. S. Iyengar, J. Tomasi, 
 M. Cossi, N. Rega, J. M. Millam, M. Klene, J. E. Knox, J. B. Cross, 
 V. Bakken, C. Adamo, J. Jaramillo, R. Gomperts, R. E. Stratmann, 
 O. Yazyev, A. J. Austin, R. Cammi, C. Pomelli, J. W. Ochterski, 
 R. L. Martin, K. Morokuma, V. G. Zakrzewski, G. A. Voth, 
 P. Salvador, J. J. Dannenberg, S. Dapprich, A. D. Daniels, 
 O. Farkas, J. B. Foresman, J. V. Ortiz, J. Cioslowski, 
 and D. J. Fox, Gaussian, Inc., Wallingford CT, 2013.
 
 ******************************************
 Gaussian 09:  ES64L-G09RevE.01 30-Nov-2015
                24-Feb-2017 
 ******************************************
 %NProcShared=8
 Will use up to    8 processors via shared memory.
 ------------------
 #n B3LYP/3-21G Opt
 ------------------
 1/14=-1,18=20,19=15,26=3,38=1/1,3;
 2/9=110,12=2,17=6,18=5,40=1/2;
 3/5=5,11=2,16=1,25=1,30=1,71=1,74=-5/1,2,3;
 4//1;
 5/5=2,38=5/2;
 6/7=2,8=2,9=2,10=2,28=1/1;
 7//1,2,3,16;
 1/14=-1,18=20,19=15,26=3/3(2);
 2/9=110/2;
 99//99;
 2/9=110/2;
 3/5=5,11=2,16=1,25=1,30=1,71=1,74=-5/1,2,3;
 4/5=5,16=3,69=1/1;
 5/5=2,38=5/2;
 7//1,2,3,16;
 1/14=-1,18=20,19=15,26=3/3(-5);
 2/9=110/2;
 6/7=2,8=2,9=2,10=2,19=2,28=1/1;
 99/9=1/99;
 -----
 Title
 -----
 Symbolic Z-matrix:
 Charge =  0 Multiplicity = 1
 C                    -0.74586  -1.17255   1.55783 
 C                     0.44906  -0.84175   1.09189 
 H                    -0.85261  -1.84945   2.40196 
 H                    -1.65368  -0.77653   1.10932 
 H                     1.35689  -1.23777   1.54039 
 H                     0.55581  -0.16485   0.24776 
 

 GradGradGradGradGradGradGradGradGradGradGradGradGradGradGradGradGradGrad
 Berny optimization.
 Initialization pass.
                           ----------------------------
                           !    Initial Parameters    !
                           ! (Angstroms and Degrees)  !
 --------------------------                            --------------------------
 ! Name  Definition              Value          Derivative Info.                !
 --------------------------------------------------------------------------------
 ! R1    R(1,2)                  1.3245         estimate D2E/DX2                !
 ! R2    R(1,3)                  1.0873         estimate D2E/DX2                !
 ! R3    R(1,4)                  1.0873         estimate D2E/DX2                !
 ! R4    R(2,5)                  1.0873         estimate D2E/DX2                !
 ! R5    R(2,6)                  1.0873         estimate D2E/DX2                !
 ! A1    A(2,1,3)              121.1431         estimate D2E/DX2                !
 ! A2    A(2,1,4)              121.1433         estimate D2E/DX2                !
 ! A3    A(3,1,4)              117.7137         estimate D2E/DX2                !
 ! A4    A(1,2,5)              121.1439         estimate D2E/DX2                !
 ! A5    A(1,2,6)              121.1431         estimate D2E/DX2                !
 ! A6    A(5,2,6)              117.713          estimate D2E/DX2                !
 ! D1    D(3,1,2,5)              0.0002         estimate D2E/DX2                !
 ! D2    D(3,1,2,6)            180.0            estimate D2E/DX2                !
 ! D3    D(4,1,2,5)           -179.9996         estimate D2E/DX2                !
 ! D4    D(4,1,2,6)              0.0002         estimate D2E/DX2                !
 --------------------------------------------------------------------------------
 Trust Radius=3.00D-01 FncErr=1.00D-07 GrdErr=1.00D-06
 Number of steps in this run=     25 maximum allowed number of steps=    100.
 GradGradGradGradGradGradGradGradGradGradGradGradGradGradGradGradGradGrad

                          Input orientation:                          
 ---------------------------------------------------------------------
 Center     Atomic      Atomic             Coordinates (Angstroms)
 Number     Number       Type             X           Y           Z
 ---------------------------------------------------------------------
      1          6           0       -0.745860   -1.172550    1.557830
      2          6           0        0.449060   -0.841750    1.091890
      3          1           0       -0.852610   -1.849450    2.401960
      4          1           0       -1.653680   -0.776530    1.109320
      5          1           0        1.356890   -1.237770    1.540390
      6          1           0        0.555810   -0.164850    0.247760
 ---------------------------------------------------------------------
                    Distance matrix (angstroms):
                    1          2          3          4          5
     1  C    0.000000
     2  C    1.324524   0.000000
     3  H    1.087265   2.103827   0.000000
     4  H    1.087258   2.103823   1.861126   0.000000
     5  H    2.103833   1.087262   2.449152   3.076052   0.000000
     6  H    2.103827   1.087265   3.076053   2.449139   1.861123
                    6
     6  H    0.000000
 Stoichiometry    C2H4
 Framework group  C1[X(C2H4)]
 Deg. of freedom    12
 Full point group                 C1      NOp   1
 Largest Abelian subgroup         C1      NOp   1
 Largest concise Abelian subgroup C1      NOp   1
                         Standard orientation:                         
 ---------------------------------------------------------------------
 Center     Atomic      Atomic             Coordinates (Angstroms)
 Number     Number       Type             X           Y           Z
 ---------------------------------------------------------------------
      1          6           0        0.662263    0.000001    0.000000
      2          6           0       -0.662261   -0.000001    0.000000
      3          1           0        1.224572   -0.930565    0.000000
      4          1           0        1.224569    0.930560    0.000003
      5          1           0       -1.224580   -0.930558    0.000003
      6          1           0       -1.224570    0.930565    0.000000
 ---------------------------------------------------------------------
 Rotational constants (GHZ):    144.7709037     30.4970117     25.1904631
 Standard basis: 3-21G (6D, 7F)
 There are    26 symmetry adapted cartesian basis functions of A   symmetry.
 There are    26 symmetry adapted basis functions of A   symmetry.
    26 basis functions,    42 primitive gaussians,    26 cartesian basis functions
     8 alpha electrons        8 beta electrons
       nuclear repulsion energy        33.4453569118 Hartrees.
 NAtoms=    6 NActive=    6 NUniq=    6 SFac= 1.00D+00 NAtFMM=   60 NAOKFM=F Big=F
 Integral buffers will be    131072 words long.
 Raffenetti 2 integral format.
 Two-electron integral symmetry is turned on.
 One-electron integrals computed using PRISM.
 NBasis=    26 RedAO= T EigKep=  1.56D-02  NBF=    26
 NBsUse=    26 1.00D-06 EigRej= -1.00D+00 NBFU=    26
 ExpMin= 1.83D-01 ExpMax= 1.72D+02 ExpMxC= 1.72D+02 IAcc=1 IRadAn=         1 AccDes= 0.00D+00
 Harris functional with IExCor=  402 and IRadAn=       1 diagonalized for initial guess.
 HarFok:  IExCor=  402 AccDes= 0.00D+00 IRadAn=         1 IDoV= 1 UseB2=F ITyADJ=14
 ICtDFT=  3500011 ScaDFX=  1.000000  1.000000  1.000000  1.000000
 FoFCou: FMM=F IPFlag=           0 FMFlag=      100000 FMFlg1=           0
         NFxFlg=           0 DoJE=T BraDBF=F KetDBF=T FulRan=T
         wScrn=  0.000000 ICntrl=     500 IOpCl=  0 I1Cent=   200000004 NGrid=           0
         NMat0=    1 NMatS0=      1 NMatT0=    0 NMatD0=    1 NMtDS0=    0 NMtDT0=    0
 Petite list used in FoFCou.
 Keep R1 ints in memory in canonical form, NReq=942556.
 Requested convergence on RMS density matrix=1.00D-08 within 128 cycles.
 Requested convergence on MAX density matrix=1.00D-06.
 Requested convergence on             energy=1.00D-06.
 No special actions if energy rises.
 Integral accuracy reduced to 1.0D-05 until final iterations.
 Initial convergence to 1.0D-05 achieved.  Increase integral accuracy.
 SCF Done:  E(RB3LYP) =  -78.1608657854     A.U. after   10 cycles
            NFock= 10  Conv=0.24D-08     -V/T= 2.0098

 **********************************************************************

            Population analysis using the SCF density.

 **********************************************************************

 Orbital symmetries:
       Occupied  (A) (A) (A) (A) (A) (A) (A) (A)
       Virtual   (A) (A) (A) (A) (A) (A) (A) (A) (A) (A) (A) (A)
                 (A) (A) (A) (A) (A) (A)
 The electronic state is 1-A.
 Alpha  occ. eigenvalues --  -10.11869 -10.11772  -0.76155  -0.57417  -0.47246
 Alpha  occ. eigenvalues --   -0.42048  -0.35313  -0.27140
 Alpha virt. eigenvalues --    0.02374   0.14200   0.15517   0.18040   0.27613
 Alpha virt. eigenvalues --    0.36827   0.66171   0.71989   0.73040   0.80178
 Alpha virt. eigenvalues --    0.83797   0.86856   1.01193   1.05611   1.08957
 Alpha virt. eigenvalues --    1.39762   1.39814   1.71126
          Condensed to atoms (all electrons):
               1          2          3          4          5          6
     1  C    5.143804   0.559602   0.382639   0.382640  -0.048153  -0.048155
     2  C    0.559602   5.143804  -0.048155  -0.048155   0.382640   0.382639
     3  H    0.382639  -0.048155   0.510414  -0.029120  -0.005309   0.003343
     4  H    0.382640  -0.048155  -0.029120   0.510411   0.003343  -0.005309
     5  H   -0.048153   0.382640  -0.005309   0.003343   0.510413  -0.029121
     6  H   -0.048155   0.382639   0.003343  -0.005309  -0.029121   0.510415
 Mulliken charges:
               1
     1  C   -0.372377
     2  C   -0.372375
     3  H    0.186187
     4  H    0.186189
     5  H    0.186188
     6  H    0.186187
 Sum of Mulliken charges =   0.00000
 Mulliken charges with hydrogens summed into heavy atoms:
               1
     1  C    0.000000
     2  C    0.000000
 Electronic spatial extent (au):  <R**2>=             81.9100
 Charge=              0.0000 electrons
 Dipole moment (field-independent basis, Debye):
    X=              0.0000    Y=              0.0000    Z=              0.0000  Tot=              0.0000
 Quadrupole moment (field-independent basis, Debye-Ang):
   XX=            -12.1028   YY=            -12.0657   ZZ=            -15.2752
   XY=              0.0000   XZ=              0.0000   YZ=              0.0000
 Traceless Quadrupole moment (field-independent basis, Debye-Ang):
   XX=              1.0451   YY=              1.0822   ZZ=             -2.1273
   XY=              0.0000   XZ=              0.0000   YZ=              0.0000
 Octapole moment (field-independent basis, Debye-Ang**2):
  XXX=              0.0000  YYY=              0.0000  ZZZ=              0.0000  XYY=              0.0000
  XXY=              0.0000  XXZ=              0.0000  XZZ=              0.0000  YZZ=              0.0000
  YYZ=              0.0000  XYZ=              0.0000
 Hexadecapole moment (field-independent basis, Debye-Ang**3):
 XXXX=            -64.8764 YYYY=            -25.2007 ZZZZ=            -15.5853 XXXY=              0.0001
 XXXZ=              0.0000 YYYX=              0.0000 YYYZ=              0.0000 ZZZX=              0.0000
 ZZZY=              0.0000 XXYY=            -12.4812 XXZZ=            -14.4246 YYZZ=             -7.4269
 XXYZ=              0.0000 YYXZ=              0.0000 ZZXY=              0.0000
 N-N= 3.344535691183D+01 E-N=-2.472960282316D+02  KE= 7.740216053717D+01
 Calling FoFJK, ICntrl=      2127 FMM=F ISym2X=0 I1Cent= 0 IOpClX= 0 NMat=1 NMatS=1 NMatT=0.
 ***** Axes restored to original set *****
 -------------------------------------------------------------------
 Center     Atomic                   Forces (Hartrees/Bohr)
 Number     Number              X              Y              Z
 -------------------------------------------------------------------
      1        6          -0.004408443   -0.001223867    0.001722948
      2        6           0.004411981    0.001223027   -0.001722648
      3        1          -0.002426334    0.000917626   -0.001024204
      4        1          -0.000462968   -0.001714743    0.002147732
      5        1           0.000459916    0.001715480   -0.002147806
      6        1           0.002425848   -0.000917522    0.001023977
 -------------------------------------------------------------------
 Cartesian Forces:  Max     0.004411981 RMS     0.002093877

 GradGradGradGradGradGradGradGradGradGradGradGradGradGradGradGradGradGrad
 Berny optimization.
 FormGI is forming the generalized inverse of G from B-inverse, IUseBI=4.
 Internal  Forces:  Max     0.008089740 RMS     0.002672356
 Search for a local minimum.
 Step number   1 out of a maximum of   25
 All quantities printed in internal units (Hartrees-Bohrs-Radians)
 Mixed Optimization -- RFO/linear search
 Second derivative matrix not updated -- first step.
 The second derivative matrix:
                          R1        R2        R3        R4        R5
           R1           0.60818
           R2           0.00000   0.35131
           R3           0.00000   0.00000   0.35131
           R4           0.00000   0.00000   0.00000   0.35131
           R5           0.00000   0.00000   0.00000   0.00000   0.35131
           A1           0.00000   0.00000   0.00000   0.00000   0.00000
           A2           0.00000   0.00000   0.00000   0.00000   0.00000
           A3           0.00000   0.00000   0.00000   0.00000   0.00000
           A4           0.00000   0.00000   0.00000   0.00000   0.00000
           A5           0.00000   0.00000   0.00000   0.00000   0.00000
           A6           0.00000   0.00000   0.00000   0.00000   0.00000
           D1           0.00000   0.00000   0.00000   0.00000   0.00000
           D2           0.00000   0.00000   0.00000   0.00000   0.00000
           D3           0.00000   0.00000   0.00000   0.00000   0.00000
           D4           0.00000   0.00000   0.00000   0.00000   0.00000
                          A1        A2        A3        A4        A5
           A1           0.16000
           A2           0.00000   0.16000
           A3           0.00000   0.00000   0.16000
           A4           0.00000   0.00000   0.00000   0.16000
           A5           0.00000   0.00000   0.00000   0.00000   0.16000
           A6           0.00000   0.00000   0.00000   0.00000   0.00000
           D1           0.00000   0.00000   0.00000   0.00000   0.00000
           D2           0.00000   0.00000   0.00000   0.00000   0.00000
           D3           0.00000   0.00000   0.00000   0.00000   0.00000
           D4           0.00000   0.00000   0.00000   0.00000   0.00000
                          A6        D1        D2        D3        D4
           A6           0.16000
           D1           0.00000   0.03087
           D2           0.00000   0.00000   0.03087
           D3           0.00000   0.00000   0.00000   0.03087
           D4           0.00000   0.00000   0.00000   0.00000   0.03087
 ITU=  0
     Eigenvalues ---    0.03087   0.03087   0.03087   0.16000   0.16000
     Eigenvalues ---    0.16000   0.16000   0.35131   0.35131   0.35131
     Eigenvalues ---    0.35131   0.60818
 RFO step:  Lambda=-3.50234774D-04 EMin= 3.08716499D-02
 Linear search not attempted -- first point.
 Iteration  1 RMS(Cart)=  0.01468987 RMS(Int)=  0.00006458
 Iteration  2 RMS(Cart)=  0.00006400 RMS(Int)=  0.00000000
 Iteration  3 RMS(Cart)=  0.00000000 RMS(Int)=  0.00000000
 Variable       Old X    -DE/DX   Delta X   Delta X   Delta X     New X
                                 (Linear)    (Quad)   (Total)
    R1        2.50299   0.00809   0.00000   0.01329   0.01329   2.51628
    R2        2.05463  -0.00113   0.00000  -0.00321  -0.00321   2.05142
    R3        2.05462  -0.00112   0.00000  -0.00320  -0.00320   2.05142
    R4        2.05463  -0.00113   0.00000  -0.00320  -0.00320   2.05142
    R5        2.05463  -0.00113   0.00000  -0.00321  -0.00321   2.05142
    A1        2.11435   0.00175   0.00000   0.01089   0.01089   2.12524
    A2        2.11435   0.00175   0.00000   0.01089   0.01089   2.12524
    A3        2.05449  -0.00349   0.00000  -0.02179  -0.02179   2.03270
    A4        2.11436   0.00175   0.00000   0.01088   0.01088   2.12524
    A5        2.11435   0.00175   0.00000   0.01090   0.01090   2.12524
    A6        2.05448  -0.00349   0.00000  -0.02178  -0.02178   2.03270
    D1        0.00000   0.00000   0.00000   0.00000   0.00000   0.00000
    D2        3.14159   0.00000   0.00000   0.00000   0.00000  -3.14159
    D3       -3.14159   0.00000   0.00000  -0.00001  -0.00001   3.14159
    D4        0.00000   0.00000   0.00000   0.00000   0.00000   0.00000
         Item               Value     Threshold  Converged?
 Maximum Force            0.008090     0.000450     NO 
 RMS     Force            0.002672     0.000300     NO 
 Maximum Displacement     0.027898     0.001800     NO 
 RMS     Displacement     0.014677     0.001200     NO 
 Predicted change in Energy=-1.754053D-04
 GradGradGradGradGradGradGradGradGradGradGradGradGradGradGradGradGradGrad

                          Input orientation:                          
 ---------------------------------------------------------------------
 Center     Atomic      Atomic             Coordinates (Angstroms)
 Number     Number       Type             X           Y           Z
 ---------------------------------------------------------------------
      1          6           0       -0.749031   -1.173430    1.559067
      2          6           0        0.452234   -0.840871    1.090650
      3          1           0       -0.867370   -1.848235    2.401142
      4          1           0       -1.661884   -0.784101    1.119093
      5          1           0        1.365088   -1.230198    1.530623
      6          1           0        0.570573   -0.166065    0.248575
 ---------------------------------------------------------------------
                    Distance matrix (angstroms):
                    1          2          3          4          5
     1  C    0.000000
     2  C    1.331558   0.000000
     3  H    1.085567   2.115071   0.000000
     4  H    1.085567   2.115071   1.845883   0.000000
     5  H    2.115073   1.085567   2.474599   3.087219   0.000000
     6  H    2.115072   1.085567   3.087218   2.474597   1.845882
                    6
     6  H    0.000000
 Stoichiometry    C2H4
 Framework group  C1[X(C2H4)]
 Deg. of freedom    12
 Full point group                 C1      NOp   1
 Largest Abelian subgroup         C1      NOp   1
 Largest concise Abelian subgroup C1      NOp   1
                         Standard orientation:                         
 ---------------------------------------------------------------------
 Center     Atomic      Atomic             Coordinates (Angstroms)
 Number     Number       Type             X           Y           Z
 ---------------------------------------------------------------------
      1          6           0        0.665779    0.000000    0.000000
      2          6           0       -0.665779    0.000000    0.000000
      3          1           0        1.237298   -0.922942   -0.000001
      4          1           0        1.237299    0.922941   -0.000001
      5          1           0       -1.237301   -0.922940   -0.000001
      6          1           0       -1.237299    0.922942   -0.000001
 ---------------------------------------------------------------------
 Rotational constants (GHZ):    147.1715847     30.0644752     24.9646515
 Standard basis: 3-21G (6D, 7F)
 There are    26 symmetry adapted cartesian basis functions of A   symmetry.
 There are    26 symmetry adapted basis functions of A   symmetry.
    26 basis functions,    42 primitive gaussians,    26 cartesian basis functions
     8 alpha electrons        8 beta electrons
       nuclear repulsion energy        33.3545297619 Hartrees.
 NAtoms=    6 NActive=    6 NUniq=    6 SFac= 1.00D+00 NAtFMM=   60 NAOKFM=F Big=F
 Integral buffers will be    131072 words long.
 Raffenetti 2 integral format.
 Two-electron integral symmetry is turned on.
 One-electron integrals computed using PRISM.
 NBasis=    26 RedAO= T EigKep=  1.61D-02  NBF=    26
 NBsUse=    26 1.00D-06 EigRej= -1.00D+00 NBFU=    26
 Initial guess from the checkpoint file:  "/scr/Gau-16831.chk"
 B after Tr=     0.000000    0.000000    0.000000
         Rot=    1.000000    0.000000    0.000000    0.000000 Ang=   0.00 deg.
 ExpMin= 1.83D-01 ExpMax= 1.72D+02 ExpMxC= 1.72D+02 IAcc=1 IRadAn=         1 AccDes= 0.00D+00
 Harris functional with IExCor=  402 and IRadAn=       1 diagonalized for initial guess.
 HarFok:  IExCor=  402 AccDes= 0.00D+00 IRadAn=         1 IDoV= 1 UseB2=F ITyADJ=14
 ICtDFT=  3500011 ScaDFX=  1.000000  1.000000  1.000000  1.000000
 FoFCou: FMM=F IPFlag=           0 FMFlag=      100000 FMFlg1=           0
         NFxFlg=           0 DoJE=T BraDBF=F KetDBF=T FulRan=T
         wScrn=  0.000000 ICntrl=     500 IOpCl=  0 I1Cent=   200000004 NGrid=           0
         NMat0=    1 NMatS0=      1 NMatT0=    0 NMatD0=    1 NMtDS0=    0 NMtDT0=    0
 Petite list used in FoFCou.
 Keep R1 ints in memory in canonical form, NReq=942556.
 Requested convergence on RMS density matrix=1.00D-08 within 128 cycles.
 Requested convergence on MAX density matrix=1.00D-06.
 Requested convergence on             energy=1.00D-06.
 No special actions if energy rises.
 Integral accuracy reduced to 1.0D-05 until final iterations.
 Initial convergence to 1.0D-05 achieved.  Increase integral accuracy.
 SCF Done:  E(RB3LYP) =  -78.1610407251     A.U. after    9 cycles
            NFock=  9  Conv=0.27D-08     -V/T= 2.0100
 Calling FoFJK, ICntrl=      2127 FMM=F ISym2X=0 I1Cent= 0 IOpClX= 0 NMat=1 NMatS=1 NMatT=0.
 ***** Axes restored to original set *****
 -------------------------------------------------------------------
 Center     Atomic                   Forces (Hartrees/Bohr)
 Number     Number              X              Y              Z
 -------------------------------------------------------------------
      1        6           0.002669610    0.000738939   -0.001040651
      2        6          -0.002669191   -0.000738500    0.001040436
      3        1          -0.000364872   -0.000044011    0.000071544
      4        1          -0.000294344   -0.000138492    0.000185338
      5        1           0.000294194    0.000138186   -0.000185162
      6        1           0.000364602    0.000043879   -0.000071505
 -------------------------------------------------------------------
 Cartesian Forces:  Max     0.002669610 RMS     0.001001902

 GradGradGradGradGradGradGradGradGradGradGradGradGradGradGradGradGradGrad
 Berny optimization.
 Using GEDIIS/GDIIS optimizer.
 FormGI is forming the generalized inverse of G from B-inverse, IUseBI=4.
 Internal  Forces:  Max     0.002228363 RMS     0.000617915
 Search for a local minimum.
 Step number   2 out of a maximum of   25
 All quantities printed in internal units (Hartrees-Bohrs-Radians)
 Mixed Optimization -- En-DIIS/RFO-DIIS
 Update second derivatives using D2CorX and points    1    2
 DE= -1.75D-04 DEPred=-1.75D-04 R= 9.97D-01
 TightC=F SS=  1.41D+00  RLast= 4.05D-02 DXNew= 5.0454D-01 1.2154D-01
 Trust test= 9.97D-01 RLast= 4.05D-02 DXMaxT set to 3.00D-01
 The second derivative matrix:
                          R1        R2        R3        R4        R5
           R1           0.72556
           R2          -0.01083   0.35215
           R3          -0.01081   0.00084   0.35215
           R4          -0.01083   0.00084   0.00084   0.35215
           R5          -0.01083   0.00084   0.00084   0.00084   0.35214
           A1           0.00408   0.00024   0.00023   0.00024   0.00024
           A2           0.00408   0.00024   0.00023   0.00024   0.00024
           A3          -0.00817  -0.00047  -0.00047  -0.00047  -0.00048
           A4           0.00408   0.00024   0.00023   0.00024   0.00024
           A5           0.00409   0.00024   0.00023   0.00024   0.00024
           A6          -0.00817  -0.00047  -0.00047  -0.00047  -0.00047
           D1           0.00000   0.00000   0.00000   0.00000   0.00000
           D2           0.00000   0.00000   0.00000   0.00000   0.00000
           D3           0.00000   0.00000   0.00000   0.00000   0.00000
           D4           0.00000   0.00000   0.00000   0.00000   0.00000
                          A1        A2        A3        A4        A5
           A1           0.15778
           A2          -0.00221   0.15779
           A3           0.00443   0.00443   0.15114
           A4          -0.00221  -0.00221   0.00442   0.15779
           A5          -0.00221  -0.00221   0.00443  -0.00221   0.15779
           A6           0.00443   0.00443  -0.00885   0.00442   0.00443
           D1           0.00000   0.00000   0.00000   0.00000   0.00000
           D2           0.00000   0.00000   0.00000   0.00000   0.00000
           D3           0.00000   0.00000   0.00000   0.00000   0.00000
           D4           0.00000   0.00000   0.00000   0.00000   0.00000
                          A6        D1        D2        D3        D4
           A6           0.15115
           D1           0.00000   0.03087
           D2           0.00000   0.00000   0.03087
           D3           0.00000   0.00000   0.00000   0.03087
           D4           0.00000   0.00000   0.00000   0.00000   0.03087
 ITU=  1  0
 Use linear search instead of GDIIS.
     Eigenvalues ---    0.03087   0.03087   0.03087   0.13308   0.16000
     Eigenvalues ---    0.16000   0.16000   0.35131   0.35131   0.35131
     Eigenvalues ---    0.35343   0.72715
 RFO step:  Lambda=-1.27498498D-05 EMin= 3.08716499D-02
 Quartic linear search produced a step of  0.00116.
 Iteration  1 RMS(Cart)=  0.00147734 RMS(Int)=  0.00000194
 Iteration  2 RMS(Cart)=  0.00000194 RMS(Int)=  0.00000000
 Iteration  3 RMS(Cart)=  0.00000000 RMS(Int)=  0.00000000
 Variable       Old X    -DE/DX   Delta X   Delta X   Delta X     New X
                                 (Linear)    (Quad)   (Total)
    R1        2.51628  -0.00223   0.00002  -0.00320  -0.00319   2.51309
    R2        2.05142   0.00012   0.00000   0.00024   0.00023   2.05166
    R3        2.05142   0.00012   0.00000   0.00024   0.00023   2.05166
    R4        2.05142   0.00012   0.00000   0.00024   0.00023   2.05166
    R5        2.05142   0.00012   0.00000   0.00024   0.00023   2.05166
    A1        2.12524   0.00024   0.00001   0.00190   0.00191   2.12715
    A2        2.12524   0.00024   0.00001   0.00190   0.00191   2.12715
    A3        2.03270  -0.00048  -0.00003  -0.00379  -0.00382   2.02889
    A4        2.12524   0.00024   0.00001   0.00189   0.00191   2.12715
    A5        2.12524   0.00024   0.00001   0.00190   0.00191   2.12715
    A6        2.03270  -0.00048  -0.00003  -0.00379  -0.00381   2.02889
    D1        0.00000   0.00000   0.00000   0.00000   0.00000   0.00000
    D2       -3.14159   0.00000   0.00000   0.00000   0.00000   3.14159
    D3        3.14159   0.00000   0.00000   0.00000   0.00000  -3.14159
    D4        0.00000   0.00000   0.00000   0.00000   0.00000   0.00000
         Item               Value     Threshold  Converged?
 Maximum Force            0.002228     0.000450     NO 
 RMS     Force            0.000618     0.000300     NO 
 Maximum Displacement     0.002477     0.001800     NO 
 RMS     Displacement     0.001478     0.001200     NO 
 Predicted change in Energy=-6.374832D-06
 GradGradGradGradGradGradGradGradGradGradGradGradGradGradGradGradGradGrad

                          Input orientation:                          
 ---------------------------------------------------------------------
 Center     Atomic      Atomic             Coordinates (Angstroms)
 Number     Number       Type             X           Y           Z
 ---------------------------------------------------------------------
      1          6           0       -0.748270   -1.173219    1.558771
      2          6           0        0.451473   -0.841081    1.090946
      3          1           0       -0.868680   -1.847911    2.400802
      4          1           0       -1.662345   -0.784916    1.120124
      5          1           0        1.365548   -1.229384    1.529593
      6          1           0        0.571884   -0.166389    0.248915
 ---------------------------------------------------------------------
                    Distance matrix (angstroms):
                    1          2          3          4          5
     1  C    0.000000
     2  C    1.329872   0.000000
     3  H    1.085690   2.114766   0.000000
     4  H    1.085691   2.114766   1.843908   0.000000
     5  H    2.114766   1.085690   2.476562   3.087613   0.000000
     6  H    2.114766   1.085690   3.087613   2.476562   1.843908
                    6
     6  H    0.000000
 Stoichiometry    C2H4
 Framework group  C1[X(C2H4)]
 Deg. of freedom    12
 Full point group                 C1      NOp   1
 Largest Abelian subgroup         C1      NOp   1
 Largest concise Abelian subgroup C1      NOp   1
                         Standard orientation:                         
 ---------------------------------------------------------------------
 Center     Atomic      Atomic             Coordinates (Angstroms)
 Number     Number       Type             X           Y           Z
 ---------------------------------------------------------------------
      1          6           0        0.664936    0.000000    0.000000
      2          6           0       -0.664936    0.000000    0.000000
      3          1           0        1.238281   -0.921954    0.000000
      4          1           0        1.238281    0.921954    0.000000
      5          1           0       -1.238281   -0.921954    0.000000
      6          1           0       -1.238281    0.921954    0.000000
 ---------------------------------------------------------------------
 Rotational constants (GHZ):    147.4868994     30.0951336     24.9948594
 Standard basis: 3-21G (6D, 7F)
 There are    26 symmetry adapted cartesian basis functions of A   symmetry.
 There are    26 symmetry adapted basis functions of A   symmetry.
    26 basis functions,    42 primitive gaussians,    26 cartesian basis functions
     8 alpha electrons        8 beta electrons
       nuclear repulsion energy        33.3724359529 Hartrees.
 NAtoms=    6 NActive=    6 NUniq=    6 SFac= 1.00D+00 NAtFMM=   60 NAOKFM=F Big=F
 Integral buffers will be    131072 words long.
 Raffenetti 2 integral format.
 Two-electron integral symmetry is turned on.
 One-electron integrals computed using PRISM.
 NBasis=    26 RedAO= T EigKep=  1.60D-02  NBF=    26
 NBsUse=    26 1.00D-06 EigRej= -1.00D+00 NBFU=    26
 Initial guess from the checkpoint file:  "/scr/Gau-16831.chk"
 B after Tr=     0.000000    0.000000    0.000000
         Rot=    1.000000    0.000000    0.000000    0.000000 Ang=   0.00 deg.
 Keep R1 ints in memory in canonical form, NReq=942556.
 Requested convergence on RMS density matrix=1.00D-08 within 128 cycles.
 Requested convergence on MAX density matrix=1.00D-06.
 Requested convergence on             energy=1.00D-06.
 No special actions if energy rises.
 SCF Done:  E(RB3LYP) =  -78.1610485164     A.U. after    6 cycles
            NFock=  6  Conv=0.78D-08     -V/T= 2.0099
 Calling FoFJK, ICntrl=      2127 FMM=F ISym2X=0 I1Cent= 0 IOpClX= 0 NMat=1 NMatS=1 NMatT=0.
 ***** Axes restored to original set *****
 -------------------------------------------------------------------
 Center     Atomic                   Forces (Hartrees/Bohr)
 Number     Number              X              Y              Z
 -------------------------------------------------------------------
      1        6           0.000638871    0.000176908   -0.000249257
      2        6          -0.000638822   -0.000176895    0.000249069
      3        1          -0.000087609   -0.000051608    0.000068121
      4        1          -0.000121395   -0.000006286    0.000013504
      5        1           0.000121418    0.000006255   -0.000013394
      6        1           0.000087537    0.000051627   -0.000068044
 -------------------------------------------------------------------
 Cartesian Forces:  Max     0.000638871 RMS     0.000242997

 GradGradGradGradGradGradGradGradGradGradGradGradGradGradGradGradGradGrad
 Berny optimization.
 Using GEDIIS/GDIIS optimizer.
 FormGI is forming the generalized inverse of G from B-inverse, IUseBI=4.
 Internal  Forces:  Max     0.000476498 RMS     0.000140621
 Search for a local minimum.
 Step number   3 out of a maximum of   25
 All quantities printed in internal units (Hartrees-Bohrs-Radians)
 Mixed Optimization -- En-DIIS/RFO-DIIS
 Swapping is turned off.
 Update second derivatives using D2CorX and points    1    2    3
 DE= -7.79D-06 DEPred=-6.37D-06 R= 1.22D+00
 TightC=F SS=  1.41D+00  RLast= 7.35D-03 DXNew= 5.0454D-01 2.2054D-02
 Trust test= 1.22D+00 RLast= 7.35D-03 DXMaxT set to 3.00D-01
 The second derivative matrix:
                          R1        R2        R3        R4        R5
           R1           0.64558
           R2           0.00361   0.35155
           R3           0.00361   0.00024   0.35155
           R4           0.00360   0.00024   0.00024   0.35155
           R5           0.00360   0.00024   0.00024   0.00024   0.35155
           A1           0.01318  -0.00186  -0.00186  -0.00186  -0.00186
           A2           0.01318  -0.00186  -0.00186  -0.00186  -0.00186
           A3          -0.02636   0.00372   0.00373   0.00373   0.00372
           A4           0.01317  -0.00186  -0.00186  -0.00186  -0.00186
           A5           0.01318  -0.00186  -0.00186  -0.00186  -0.00186
           A6          -0.02635   0.00372   0.00372   0.00372   0.00372
           D1           0.00000   0.00000   0.00000   0.00000   0.00000
           D2           0.00001   0.00000   0.00000   0.00000   0.00000
           D3          -0.00001   0.00000   0.00000   0.00000   0.00000
           D4           0.00000   0.00000   0.00000   0.00000   0.00000
                          A1        A2        A3        A4        A5
           A1           0.15682
           A2          -0.00318   0.15682
           A3           0.00636   0.00636   0.14727
           A4          -0.00318  -0.00318   0.00636   0.15682
           A5          -0.00318  -0.00318   0.00636  -0.00318   0.15682
           A6           0.00636   0.00636  -0.01272   0.00635   0.00636
           D1           0.00000   0.00000   0.00000   0.00000   0.00000
           D2           0.00000   0.00000   0.00000   0.00000   0.00000
           D3           0.00000   0.00000   0.00000   0.00000   0.00000
           D4           0.00000   0.00000   0.00000   0.00000   0.00000
                          A6        D1        D2        D3        D4
           A6           0.14729
           D1           0.00000   0.03087
           D2           0.00000   0.00000   0.03087
           D3           0.00000   0.00000   0.00000   0.03087
           D4           0.00000   0.00000   0.00000   0.00000   0.03087
 ITU=  1  1  0
     Eigenvalues ---    0.03087   0.03087   0.03087   0.11712   0.16000
     Eigenvalues ---    0.16000   0.16000   0.35131   0.35131   0.35131
     Eigenvalues ---    0.35292   0.64965
 En-DIIS/RFO-DIIS IScMMF=        0 using points:     3    2
 RFO step:  Lambda=-4.76037212D-07.
 DidBck=F Rises=F RFO-DIIS coefs:    1.28418   -0.28418
 Iteration  1 RMS(Cart)=  0.00042343 RMS(Int)=  0.00000018
 Iteration  2 RMS(Cart)=  0.00000018 RMS(Int)=  0.00000000
 Variable       Old X    -DE/DX   Delta X   Delta X   Delta X     New X
                                 (Linear)    (Quad)   (Total)
    R1        2.51309  -0.00048  -0.00091   0.00003  -0.00088   2.51221
    R2        2.05166   0.00009   0.00007   0.00025   0.00031   2.05197
    R3        2.05166   0.00009   0.00007   0.00025   0.00031   2.05197
    R4        2.05166   0.00009   0.00007   0.00025   0.00031   2.05197
    R5        2.05166   0.00009   0.00007   0.00025   0.00031   2.05197
    A1        2.12715   0.00005   0.00054   0.00001   0.00055   2.12770
    A2        2.12715   0.00005   0.00054   0.00001   0.00055   2.12770
    A3        2.02889  -0.00011  -0.00108  -0.00002  -0.00110   2.02779
    A4        2.12715   0.00005   0.00054   0.00001   0.00055   2.12770
    A5        2.12715   0.00005   0.00054   0.00001   0.00055   2.12770
    A6        2.02889  -0.00011  -0.00108  -0.00002  -0.00110   2.02779
    D1        0.00000   0.00000   0.00000   0.00000   0.00000   0.00000
    D2        3.14159   0.00000   0.00000   0.00000   0.00000  -3.14159
    D3       -3.14159   0.00000   0.00000   0.00000   0.00000   3.14159
    D4        0.00000   0.00000   0.00000   0.00000   0.00000   0.00000
         Item               Value     Threshold  Converged?
 Maximum Force            0.000476     0.000450     NO 
 RMS     Force            0.000141     0.000300     YES
 Maximum Displacement     0.000759     0.001800     YES
 RMS     Displacement     0.000423     0.001200     YES
 Predicted change in Energy=-4.437251D-07
 GradGradGradGradGradGradGradGradGradGradGradGradGradGradGradGradGradGrad

                          Input orientation:                          
 ---------------------------------------------------------------------
 Center     Atomic      Atomic             Coordinates (Angstroms)
 Number     Number       Type             X           Y           Z
 ---------------------------------------------------------------------
      1          6           0       -0.748060   -1.173161    1.558689
      2          6           0        0.451263   -0.841139    1.091028
      3          1           0       -0.869082   -1.847900    2.400807
      4          1           0       -1.662596   -0.785107    1.120373
      5          1           0        1.365799   -1.229193    1.529344
      6          1           0        0.572285   -0.166400    0.248910
 ---------------------------------------------------------------------
                    Distance matrix (angstroms):
                    1          2          3          4          5
     1  C    0.000000
     2  C    1.329407   0.000000
     3  H    1.085856   2.114805   0.000000
     4  H    1.085856   2.114805   1.843558   0.000000
     5  H    2.114805   1.085856   2.477285   3.087984   0.000000
     6  H    2.114805   1.085856   3.087984   2.477285   1.843558
                    6
     6  H    0.000000
 Stoichiometry    C2H4
 Framework group  C1[X(C2H4)]
 Deg. of freedom    12
 Full point group                 C1      NOp   1
 Largest Abelian subgroup         C1      NOp   1
 Largest concise Abelian subgroup C1      NOp   1
                         Standard orientation:                         
 ---------------------------------------------------------------------
 Center     Atomic      Atomic             Coordinates (Angstroms)
 Number     Number       Type             X           Y           Z
 ---------------------------------------------------------------------
      1          6           0        0.664703    0.000000    0.000000
      2          6           0       -0.664703    0.000000    0.000000
      3          1           0        1.238642   -0.921779    0.000000
      4          1           0        1.238642    0.921779    0.000000
      5          1           0       -1.238642   -0.921779    0.000000
      6          1           0       -1.238642    0.921779    0.000000
 ---------------------------------------------------------------------
 Rotational constants (GHZ):    147.5429249     30.1019802     25.0011910
 Standard basis: 3-21G (6D, 7F)
 There are    26 symmetry adapted cartesian basis functions of A   symmetry.
 There are    26 symmetry adapted basis functions of A   symmetry.
    26 basis functions,    42 primitive gaussians,    26 cartesian basis functions
     8 alpha electrons        8 beta electrons
       nuclear repulsion energy        33.3755030161 Hartrees.
 NAtoms=    6 NActive=    6 NUniq=    6 SFac= 1.00D+00 NAtFMM=   60 NAOKFM=F Big=F
 Integral buffers will be    131072 words long.
 Raffenetti 2 integral format.
 Two-electron integral symmetry is turned on.
 One-electron integrals computed using PRISM.
 NBasis=    26 RedAO= T EigKep=  1.60D-02  NBF=    26
 NBsUse=    26 1.00D-06 EigRej= -1.00D+00 NBFU=    26
 Initial guess from the checkpoint file:  "/scr/Gau-16831.chk"
 B after Tr=     0.000000    0.000000    0.000000
         Rot=    1.000000    0.000000    0.000000    0.000000 Ang=   0.00 deg.
 Keep R1 ints in memory in canonical form, NReq=942556.
 Requested convergence on RMS density matrix=1.00D-08 within 128 cycles.
 Requested convergence on MAX density matrix=1.00D-06.
 Requested convergence on             energy=1.00D-06.
 No special actions if energy rises.
 SCF Done:  E(RB3LYP) =  -78.1610489572     A.U. after    6 cycles
            NFock=  6  Conv=0.79D-08     -V/T= 2.0099
 Calling FoFJK, ICntrl=      2127 FMM=F ISym2X=0 I1Cent= 0 IOpClX= 0 NMat=1 NMatS=1 NMatT=0.
 ***** Axes restored to original set *****
 -------------------------------------------------------------------
 Center     Atomic                   Forces (Hartrees/Bohr)
 Number     Number              X              Y              Z
 -------------------------------------------------------------------
      1        6          -0.000003549   -0.000000925    0.000001404
      2        6           0.000003540    0.000001009   -0.000001326
      3        1           0.000000868    0.000001514   -0.000001963
      4        1           0.000002477   -0.000000639    0.000000631
      5        1          -0.000002469    0.000000594   -0.000000666
      6        1          -0.000000866   -0.000001553    0.000001920
 -------------------------------------------------------------------
 Cartesian Forces:  Max     0.000003549 RMS     0.000001800

 GradGradGradGradGradGradGradGradGradGradGradGradGradGradGradGradGradGrad
 Berny optimization.
 Using GEDIIS/GDIIS optimizer.
 FormGI is forming the generalized inverse of G from B-inverse, IUseBI=4.
 Internal  Forces:  Max     0.000002569 RMS     0.000001371
 Search for a local minimum.
 Step number   4 out of a maximum of   25
 All quantities printed in internal units (Hartrees-Bohrs-Radians)
 Mixed Optimization -- En-DIIS/RFO-DIIS
 Swapping is turned off.
 Update second derivatives using D2CorX and points    1    2    3    4
 DE= -4.41D-07 DEPred=-4.44D-07 R= 9.93D-01
 Trust test= 9.93D-01 RLast= 2.19D-03 DXMaxT set to 3.00D-01
 The second derivative matrix:
                          R1        R2        R3        R4        R5
           R1           0.64657
           R2           0.00421   0.35150
           R3           0.00421   0.00019   0.35151
           R4           0.00420   0.00019   0.00019   0.35150
           R5           0.00421   0.00019   0.00019   0.00019   0.35150
           A1           0.01316  -0.00138  -0.00138  -0.00138  -0.00138
           A2           0.01317  -0.00138  -0.00139  -0.00139  -0.00138
           A3          -0.02633   0.00277   0.00277   0.00277   0.00277
           A4           0.01316  -0.00138  -0.00138  -0.00138  -0.00138
           A5           0.01316  -0.00138  -0.00138  -0.00138  -0.00138
           A6          -0.02632   0.00277   0.00277   0.00277   0.00277
           D1           0.00000   0.00000   0.00000   0.00000   0.00000
           D2          -0.00001   0.00000   0.00000   0.00000   0.00000
           D3           0.00001   0.00000   0.00000   0.00000   0.00000
           D4           0.00000   0.00000   0.00000   0.00000   0.00000
                          A1        A2        A3        A4        A5
           A1           0.15679
           A2          -0.00321   0.15679
           A3           0.00643   0.00643   0.14714
           A4          -0.00321  -0.00321   0.00642   0.15679
           A5          -0.00321  -0.00321   0.00643  -0.00321   0.15679
           A6           0.00642   0.00642  -0.01285   0.00642   0.00642
           D1           0.00000   0.00000   0.00000   0.00000   0.00000
           D2           0.00000   0.00000  -0.00001   0.00000   0.00000
           D3           0.00000   0.00000   0.00001   0.00000   0.00000
           D4           0.00000   0.00000   0.00000   0.00000   0.00000
                          A6        D1        D2        D3        D4
           A6           0.14716
           D1           0.00000   0.03087
           D2          -0.00001   0.00000   0.03087
           D3           0.00001   0.00000   0.00000   0.03087
           D4           0.00000   0.00000   0.00000   0.00000   0.03087
 ITU=  0  1  1  0
     Eigenvalues ---    0.03087   0.03087   0.03087   0.11708   0.16000
     Eigenvalues ---    0.16000   0.16000   0.35131   0.35131   0.35131
     Eigenvalues ---    0.35233   0.65069
 En-DIIS/RFO-DIIS IScMMF=        0 using points:     4    3    2
 RFO step:  Lambda= 0.00000000D+00.
 DidBck=F Rises=F RFO-DIIS coefs:    0.97114    0.03587   -0.00700
 Iteration  1 RMS(Cart)=  0.00000516 RMS(Int)=  0.00000000
 Iteration  2 RMS(Cart)=  0.00000000 RMS(Int)=  0.00000000
 Variable       Old X    -DE/DX   Delta X   Delta X   Delta X     New X
                                 (Linear)    (Quad)   (Total)
    R1        2.51221   0.00000   0.00000   0.00000   0.00000   2.51222
    R2        2.05197   0.00000  -0.00001   0.00000  -0.00001   2.05196
    R3        2.05197   0.00000  -0.00001   0.00000  -0.00001   2.05196
    R4        2.05197   0.00000  -0.00001   0.00000  -0.00001   2.05196
    R5        2.05197   0.00000  -0.00001   0.00000  -0.00001   2.05196
    A1        2.12770   0.00000   0.00000   0.00000   0.00000   2.12769
    A2        2.12770   0.00000   0.00000   0.00000   0.00000   2.12769
    A3        2.02779   0.00000   0.00001   0.00000   0.00001   2.02780
    A4        2.12770   0.00000   0.00000   0.00000   0.00000   2.12769
    A5        2.12770   0.00000   0.00000   0.00000   0.00000   2.12769
    A6        2.02779   0.00000   0.00001   0.00000   0.00001   2.02780
    D1        0.00000   0.00000   0.00000   0.00000   0.00000   0.00000
    D2       -3.14159   0.00000   0.00000   0.00000   0.00000   3.14159
    D3        3.14159   0.00000   0.00000   0.00000   0.00000  -3.14159
    D4        0.00000   0.00000   0.00000   0.00000   0.00000   0.00000
         Item               Value     Threshold  Converged?
 Maximum Force            0.000003     0.000450     YES
 RMS     Force            0.000001     0.000300     YES
 Maximum Displacement     0.000010     0.001800     YES
 RMS     Displacement     0.000005     0.001200     YES
 Predicted change in Energy=-4.751178D-11
 Optimization completed.
    -- Stationary point found.
                           ----------------------------
                           !   Optimized Parameters   !
                           ! (Angstroms and Degrees)  !
 --------------------------                            --------------------------
 ! Name  Definition              Value          Derivative Info.                !
 --------------------------------------------------------------------------------
 ! R1    R(1,2)                  1.3294         -DE/DX =    0.0                 !
 ! R2    R(1,3)                  1.0859         -DE/DX =    0.0                 !
 ! R3    R(1,4)                  1.0859         -DE/DX =    0.0                 !
 ! R4    R(2,5)                  1.0859         -DE/DX =    0.0                 !
 ! R5    R(2,6)                  1.0859         -DE/DX =    0.0                 !
 ! A1    A(2,1,3)              121.9082         -DE/DX =    0.0                 !
 ! A2    A(2,1,4)              121.9082         -DE/DX =    0.0                 !
 ! A3    A(3,1,4)              116.1837         -DE/DX =    0.0                 !
 ! A4    A(1,2,5)              121.9082         -DE/DX =    0.0                 !
 ! A5    A(1,2,6)              121.9082         -DE/DX =    0.0                 !
 ! A6    A(5,2,6)              116.1837         -DE/DX =    0.0                 !
 ! D1    D(3,1,2,5)              0.0            -DE/DX =    0.0                 !
 ! D2    D(3,1,2,6)            180.0001         -DE/DX =    0.0                 !
 ! D3    D(4,1,2,5)           -180.0001         -DE/DX =    0.0                 !
 ! D4    D(4,1,2,6)              0.0            -DE/DX =    0.0                 !
 --------------------------------------------------------------------------------
 GradGradGradGradGradGradGradGradGradGradGradGradGradGradGradGradGradGrad

                          Input orientation:                          
 ---------------------------------------------------------------------
 Center     Atomic      Atomic             Coordinates (Angstroms)
 Number     Number       Type             X           Y           Z
 ---------------------------------------------------------------------
      1          6           0       -0.748060   -1.173161    1.558689
      2          6           0        0.451263   -0.841139    1.091028
      3          1           0       -0.869082   -1.847900    2.400807
      4          1           0       -1.662596   -0.785107    1.120373
      5          1           0        1.365799   -1.229193    1.529344
      6          1           0        0.572285   -0.166400    0.248910
 ---------------------------------------------------------------------
                    Distance matrix (angstroms):
                    1          2          3          4          5
     1  C    0.000000
     2  C    1.329407   0.000000
     3  H    1.085856   2.114805   0.000000
     4  H    1.085856   2.114805   1.843558   0.000000
     5  H    2.114805   1.085856   2.477285   3.087984   0.000000
     6  H    2.114805   1.085856   3.087984   2.477285   1.843558
                    6
     6  H    0.000000
 Stoichiometry    C2H4
 Framework group  C1[X(C2H4)]
 Deg. of freedom    12
 Full point group                 C1      NOp   1
 Largest Abelian subgroup         C1      NOp   1
 Largest concise Abelian subgroup C1      NOp   1
                         Standard orientation:                         
 ---------------------------------------------------------------------
 Center     Atomic      Atomic             Coordinates (Angstroms)
 Number     Number       Type             X           Y           Z
 ---------------------------------------------------------------------
      1          6           0        0.664703    0.000000    0.000000
      2          6           0       -0.664703    0.000000    0.000000
      3          1           0        1.238642   -0.921779    0.000000
      4          1           0        1.238642    0.921779    0.000000
      5          1           0       -1.238642   -0.921779    0.000000
      6          1           0       -1.238642    0.921779    0.000000
 ---------------------------------------------------------------------
 Rotational constants (GHZ):    147.5429249     30.1019802     25.0011910

 **********************************************************************

            Population analysis using the SCF density.

 **********************************************************************

 Orbital symmetries:
       Occupied  (A) (A) (A) (A) (A) (A) (A) (A)
       Virtual   (A) (A) (A) (A) (A) (A) (A) (A) (A) (A) (A) (A)
                 (A) (A) (A) (A) (A) (A)
 The electronic state is 1-A.
 Alpha  occ. eigenvalues --  -10.11959 -10.11859  -0.75990  -0.57698  -0.46968
 Alpha  occ. eigenvalues --   -0.42344  -0.35250  -0.27064
 Alpha virt. eigenvalues --    0.02226   0.14486   0.15486   0.17957   0.27586
 Alpha virt. eigenvalues --    0.36864   0.66704   0.71149   0.73087   0.80091
 Alpha virt. eigenvalues --    0.83308   0.87322   1.01145   1.05915   1.09034
 Alpha virt. eigenvalues --    1.37668   1.39940   1.70484
          Condensed to atoms (all electrons):
               1          2          3          4          5          6
     1  C    5.138271   0.564946   0.381519   0.381519  -0.046463  -0.046463
     2  C    0.564946   5.138271  -0.046463  -0.046463   0.381519   0.381519
     3  H    0.381519  -0.046463   0.511123  -0.030985  -0.005092   0.003233
     4  H    0.381519  -0.046463  -0.030985   0.511123   0.003233  -0.005092
     5  H   -0.046463   0.381519  -0.005092   0.003233   0.511123  -0.030985
     6  H   -0.046463   0.381519   0.003233  -0.005092  -0.030985   0.511123
 Mulliken charges:
               1
     1  C   -0.373329
     2  C   -0.373329
     3  H    0.186665
     4  H    0.186665
     5  H    0.186665
     6  H    0.186665
 Sum of Mulliken charges =   0.00000
 Mulliken charges with hydrogens summed into heavy atoms:
               1
     1  C    0.000000
     2  C    0.000000
 Electronic spatial extent (au):  <R**2>=             82.2832
 Charge=              0.0000 electrons
 Dipole moment (field-independent basis, Debye):
    X=              0.0000    Y=              0.0000    Z=              0.0000  Tot=              0.0000
 Quadrupole moment (field-independent basis, Debye-Ang):
   XX=            -11.9729   YY=            -12.1537   ZZ=            -15.2790
   XY=              0.0000   XZ=              0.0000   YZ=              0.0000
 Traceless Quadrupole moment (field-independent basis, Debye-Ang):
   XX=              1.1623   YY=              0.9815   ZZ=             -2.1438
   XY=              0.0000   XZ=              0.0000   YZ=              0.0000
 Octapole moment (field-independent basis, Debye-Ang**2):
  XXX=              0.0000  YYY=              0.0000  ZZZ=              0.0000  XYY=              0.0000
  XXY=              0.0000  XXZ=              0.0000  XZZ=              0.0000  YZZ=              0.0000
  YYZ=              0.0000  XYZ=              0.0000
 Hexadecapole moment (field-independent basis, Debye-Ang**3):
 XXXX=            -65.1196 YYYY=            -25.1430 ZZZZ=            -15.5946 XXXY=              0.0000
 XXXZ=              0.0000 YYYX=              0.0000 YYYZ=              0.0000 ZZZX=              0.0000
 ZZZY=              0.0000 XXYY=            -12.5494 XXZZ=            -14.5433 YYZZ=             -7.3895
 XXYZ=              0.0000 YYXZ=              0.0000 ZZXY=              0.0000
 N-N= 3.337550301607D+01 E-N=-2.471435264416D+02  KE= 7.739150069464D+01
 1\1\GINC-N0297\FOpt\RB3LYP\3-21G\C2H4\TAIYUPAN\24-Feb-2017\0\\#n B3LYP
 /3-21G Opt\\Title\\0,1\C,-0.748060119,-1.1731613387,1.558688531\C,0.45
 12634491,-0.8411391422,1.091027733\H,-0.869081882,-1.8479001009,2.4008
 072336\H,-1.6625958069,-0.785106808,1.1203727055\H,1.3657991255,-1.229
 1929589,1.5293441747\H,0.5722852376,-0.166399657,0.248909629\\Version=
 ES64L-G09RevE.01\State=1-A\HF=-78.161049\RMSD=7.910e-09\RMSF=1.800e-06
 \Dipole=0.,0.0000004,0.0000003\Quadrupole=0.837096,-0.6683022,-0.16879
 38,-0.0227501,-0.085424,-1.1462989\PG=C01 [X(C2H4)]\\@


 Everywhere is walking distance if you have the time.
                                    -- Steven Wright
 Job cpu time:       0 days  0 hours  0 minutes 31.7 seconds.
 File lengths (MBytes):  RWF=      5 Int=      0 D2E=      0 Chk=      1 Scr=      1
 Normal termination of Gaussian 09 at Fri Feb 24 00:12:15 2017.
