 Entering Gaussian System, Link 0=g09
 Input=CH2_CCSD_3G.com
 Output=CH2_CCSD_3G.log
 Initial command:
 /sw/contrib/gaussian/g09/E01/g09/l1.exe "/scr/Gau-316.inp" -scrdir="/scr/"
 Entering Link 1 = /sw/contrib/gaussian/g09/E01/g09/l1.exe PID=       317.
  
 Copyright (c) 1988,1990,1992,1993,1995,1998,2003,2009,2015,
            Gaussian, Inc.  All Rights Reserved.
  
 This is part of the Gaussian(R) 09 program.  It is based on
 the Gaussian(R) 03 system (copyright 2003, Gaussian, Inc.),
 the Gaussian(R) 98 system (copyright 1998, Gaussian, Inc.),
 the Gaussian(R) 94 system (copyright 1995, Gaussian, Inc.),
 the Gaussian 92(TM) system (copyright 1992, Gaussian, Inc.),
 the Gaussian 90(TM) system (copyright 1990, Gaussian, Inc.),
 the Gaussian 88(TM) system (copyright 1988, Gaussian, Inc.),
 the Gaussian 86(TM) system (copyright 1986, Carnegie Mellon
 University), and the Gaussian 82(TM) system (copyright 1983,
 Carnegie Mellon University). Gaussian is a federally registered
 trademark of Gaussian, Inc.
  
 This software contains proprietary and confidential information,
 including trade secrets, belonging to Gaussian, Inc.
  
 This software is provided under written license and may be
 used, copied, transmitted, or stored only in accord with that
 written license.
  
 The following legend is applicable only to US Government
 contracts under FAR:
  
                    RESTRICTED RIGHTS LEGEND
  
 Use, reproduction and disclosure by the US Government is
 subject to restrictions as set forth in subparagraphs (a)
 and (c) of the Commercial Computer Software - Restricted
 Rights clause in FAR 52.227-19.
  
 Gaussian, Inc.
 340 Quinnipiac St., Bldg. 40, Wallingford CT 06492
  
  
 ---------------------------------------------------------------
 Warning -- This program may not be used in any manner that
 competes with the business of Gaussian, Inc. or will provide
 assistance to any competitor of Gaussian, Inc.  The licensee
 of this program is prohibited from giving any competitor of
 Gaussian, Inc. access to this program.  By using this program,
 the user acknowledges that Gaussian, Inc. is engaged in the
 business of creating and licensing software in the field of
 computational chemistry and represents and warrants to the
 licensee that it is not a competitor of Gaussian, Inc. and that
 it will not use this program in any manner prohibited above.
 ---------------------------------------------------------------
  

 Cite this work as:
 Gaussian 09, Revision E.01,
 M. J. Frisch, G. W. Trucks, H. B. Schlegel, G. E. Scuseria, 
 M. A. Robb, J. R. Cheeseman, G. Scalmani, V. Barone, B. Mennucci, 
 G. A. Petersson, H. Nakatsuji, M. Caricato, X. Li, H. P. Hratchian, 
 A. F. Izmaylov, J. Bloino, G. Zheng, J. L. Sonnenberg, M. Hada, 
 M. Ehara, K. Toyota, R. Fukuda, J. Hasegawa, M. Ishida, T. Nakajima, 
 Y. Honda, O. Kitao, H. Nakai, T. Vreven, J. A. Montgomery, Jr., 
 J. E. Peralta, F. Ogliaro, M. Bearpark, J. J. Heyd, E. Brothers, 
 K. N. Kudin, V. N. Staroverov, T. Keith, R. Kobayashi, J. Normand, 
 K. Raghavachari, A. Rendell, J. C. Burant, S. S. Iyengar, J. Tomasi, 
 M. Cossi, N. Rega, J. M. Millam, M. Klene, J. E. Knox, J. B. Cross, 
 V. Bakken, C. Adamo, J. Jaramillo, R. Gomperts, R. E. Stratmann, 
 O. Yazyev, A. J. Austin, R. Cammi, C. Pomelli, J. W. Ochterski, 
 R. L. Martin, K. Morokuma, V. G. Zakrzewski, G. A. Voth, 
 P. Salvador, J. J. Dannenberg, S. Dapprich, A. D. Daniels, 
 O. Farkas, J. B. Foresman, J. V. Ortiz, J. Cioslowski, 
 and D. J. Fox, Gaussian, Inc., Wallingford CT, 2013.
 
 ******************************************
 Gaussian 09:  ES64L-G09RevE.01 30-Nov-2015
                24-Feb-2017 
 ******************************************
 %NProcShared=8
 Will use up to    8 processors via shared memory.
 -----------------
 #n CCSD/3-21G Opt
 -----------------
 1/18=20,19=15,38=1/1,3;
 2/9=110,12=2,17=6,18=5,40=1/2;
 3/5=5,11=9,16=1,25=1,30=1,71=1/1,2,3;
 4//1;
 5/5=2,38=5/2;
 8/6=4,9=120000,10=1/1,4;
 9/5=7,15=1/13;
 11/28=-8,29=200,42=3/11;
 10/5=6/2;
 6/7=2,8=2,9=2,10=2/1;
 7/12=7/1,2,3,16;
 1/18=20,19=15/3(2);
 2/9=110/2;
 99//99;
 2/9=110/2;
 3/5=5,11=9,16=1,25=1,30=1,71=1/1,2,3;
 4/5=5,16=3,69=1/1;
 5/5=2,38=5/2;
 8/6=4,9=120000,10=1/1,4;
 9/5=7,15=1/13;
 11/28=-8,29=200,42=3/11;
 10/5=6/2;
 7/12=7/1,2,3,16;
 1/18=20,19=15/3(-9);
 2/9=110/2;
 6/7=2,8=2,9=2,10=2/1;
 99//99;
 -----
 Title
 -----
 Symbolic Z-matrix:
 Charge =  0 Multiplicity = 1
 C                    -0.74586  -1.17255   1.55783 
 C                     0.44906  -0.84175   1.09189 
 H                    -0.85261  -1.84945   2.40196 
 H                    -1.65368  -0.77653   1.10932 
 H                     1.35689  -1.23777   1.54039 
 H                     0.55581  -0.16485   0.24776 
 

 GradGradGradGradGradGradGradGradGradGradGradGradGradGradGradGradGradGrad
 Berny optimization.
 Initialization pass.
                           ----------------------------
                           !    Initial Parameters    !
                           ! (Angstroms and Degrees)  !
 --------------------------                            --------------------------
 ! Name  Definition              Value          Derivative Info.                !
 --------------------------------------------------------------------------------
 ! R1    R(1,2)                  1.3245         estimate D2E/DX2                !
 ! R2    R(1,3)                  1.0873         estimate D2E/DX2                !
 ! R3    R(1,4)                  1.0873         estimate D2E/DX2                !
 ! R4    R(2,5)                  1.0873         estimate D2E/DX2                !
 ! R5    R(2,6)                  1.0873         estimate D2E/DX2                !
 ! A1    A(2,1,3)              121.1431         estimate D2E/DX2                !
 ! A2    A(2,1,4)              121.1433         estimate D2E/DX2                !
 ! A3    A(3,1,4)              117.7137         estimate D2E/DX2                !
 ! A4    A(1,2,5)              121.1439         estimate D2E/DX2                !
 ! A5    A(1,2,6)              121.1431         estimate D2E/DX2                !
 ! A6    A(5,2,6)              117.713          estimate D2E/DX2                !
 ! D1    D(3,1,2,5)              0.0002         estimate D2E/DX2                !
 ! D2    D(3,1,2,6)            180.0            estimate D2E/DX2                !
 ! D3    D(4,1,2,5)           -179.9996         estimate D2E/DX2                !
 ! D4    D(4,1,2,6)              0.0002         estimate D2E/DX2                !
 --------------------------------------------------------------------------------
 Trust Radius=3.00D-01 FncErr=1.00D-07 GrdErr=1.00D-07
 Number of steps in this run=     25 maximum allowed number of steps=    100.
 GradGradGradGradGradGradGradGradGradGradGradGradGradGradGradGradGradGrad

                          Input orientation:                          
 ---------------------------------------------------------------------
 Center     Atomic      Atomic             Coordinates (Angstroms)
 Number     Number       Type             X           Y           Z
 ---------------------------------------------------------------------
      1          6           0       -0.745860   -1.172550    1.557830
      2          6           0        0.449060   -0.841750    1.091890
      3          1           0       -0.852610   -1.849450    2.401960
      4          1           0       -1.653680   -0.776530    1.109320
      5          1           0        1.356890   -1.237770    1.540390
      6          1           0        0.555810   -0.164850    0.247760
 ---------------------------------------------------------------------
                    Distance matrix (angstroms):
                    1          2          3          4          5
     1  C    0.000000
     2  C    1.324524   0.000000
     3  H    1.087265   2.103827   0.000000
     4  H    1.087258   2.103823   1.861126   0.000000
     5  H    2.103833   1.087262   2.449152   3.076052   0.000000
     6  H    2.103827   1.087265   3.076053   2.449139   1.861123
                    6
     6  H    0.000000
 Stoichiometry    C2H4
 Framework group  C1[X(C2H4)]
 Deg. of freedom    12
 Full point group                 C1      NOp   1
 Largest Abelian subgroup         C1      NOp   1
 Largest concise Abelian subgroup C1      NOp   1
                         Standard orientation:                         
 ---------------------------------------------------------------------
 Center     Atomic      Atomic             Coordinates (Angstroms)
 Number     Number       Type             X           Y           Z
 ---------------------------------------------------------------------
      1          6           0        0.662263    0.000001    0.000000
      2          6           0       -0.662261   -0.000001    0.000000
      3          1           0        1.224572   -0.930565    0.000000
      4          1           0        1.224569    0.930560    0.000003
      5          1           0       -1.224580   -0.930558    0.000003
      6          1           0       -1.224570    0.930565    0.000000
 ---------------------------------------------------------------------
 Rotational constants (GHZ):    144.7709037     30.4970117     25.1904631
 Standard basis: 3-21G (6D, 7F)
 There are    26 symmetry adapted cartesian basis functions of A   symmetry.
 There are    26 symmetry adapted basis functions of A   symmetry.
    26 basis functions,    42 primitive gaussians,    26 cartesian basis functions
     8 alpha electrons        8 beta electrons
       nuclear repulsion energy        33.4453569118 Hartrees.
 NAtoms=    6 NActive=    6 NUniq=    6 SFac= 1.00D+00 NAtFMM=   60 NAOKFM=F Big=F
 Integral buffers will be    131072 words long.
 Raffenetti 1 integral format.
 Two-electron integral symmetry is turned on.
 One-electron integrals computed using PRISM.
 NBasis=    26 RedAO= T EigKep=  1.56D-02  NBF=    26
 NBsUse=    26 1.00D-06 EigRej= -1.00D+00 NBFU=    26
 ExpMin= 1.83D-01 ExpMax= 1.72D+02 ExpMxC= 1.72D+02 IAcc=1 IRadAn=         1 AccDes= 0.00D+00
 Harris functional with IExCor=  205 and IRadAn=       1 diagonalized for initial guess.
 HarFok:  IExCor=  205 AccDes= 0.00D+00 IRadAn=         1 IDoV= 1 UseB2=F ITyADJ=14
 ICtDFT=  3500011 ScaDFX=  1.000000  1.000000  1.000000  1.000000
 FoFCou: FMM=F IPFlag=           0 FMFlag=      100000 FMFlg1=           0
         NFxFlg=           0 DoJE=T BraDBF=F KetDBF=T FulRan=T
         wScrn=  0.000000 ICntrl=     500 IOpCl=  0 I1Cent=   200000004 NGrid=           0
         NMat0=    1 NMatS0=      1 NMatT0=    0 NMatD0=    1 NMtDS0=    0 NMtDT0=    0
 Petite list used in FoFCou.
 Keep R1 ints in memory in canonical form, NReq=889329.
 Requested convergence on RMS density matrix=1.00D-08 within 128 cycles.
 Requested convergence on MAX density matrix=1.00D-06.
 Requested convergence on             energy=1.00D-06.
 No special actions if energy rises.
 SCF Done:  E(RHF) =  -77.6002108170     A.U. after    8 cycles
            NFock=  8  Conv=0.85D-08     -V/T= 2.0036
 ExpMin= 1.83D-01 ExpMax= 1.72D+02 ExpMxC= 1.72D+02 IAcc=3 IRadAn=         5 AccDes= 0.00D+00
 HarFok:  IExCor=  205 AccDes= 0.00D+00 IRadAn=         5 IDoV=-2 UseB2=F ITyADJ=14
 ICtDFT= 12500011 ScaDFX=  1.000000  1.000000  1.000000  1.000000
 Range of M.O.s used for correlation:     3    26
 NBasis=    26 NAE=     8 NBE=     8 NFC=     2 NFV=     0
 NROrb=     24 NOA=     6 NOB=     6 NVA=    18 NVB=    18
 Semi-Direct transformation.
 ModeAB=           2 MOrb=             6 LenV=      33437287
 LASXX=        32223 LTotXX=       32223 LenRXX=       32223
 LTotAB=       36432 MaxLAS=       50544 LenRXY=       50544
 NonZer=       64446 LenScr=      785920 LnRSAI=           0
 LnScr1=           0 LExtra=           0 Total=       868687
 MaxDsk=          -1 SrtSym=           F ITran=            4
 JobTyp=0 Pass  1:  I=   1 to   6.
 (rs|ai) integrals will be sorted in core.
 SymMOI:  orbitals are not symmetric.
 Spin components of T(2) and E(2):
     alpha-alpha T2 =       0.7060146687D-02 E2=     -0.1833104285D-01
     alpha-beta  T2 =       0.5859117338D-01 E2=     -0.1439411296D+00
     beta-beta   T2 =       0.7060146687D-02 E2=     -0.1833104285D-01
 ANorm=    0.1035717851D+01
 E2 =    -0.1806032153D+00 EUMP2 =    -0.77780814032299D+02
 Keep R2 and R3 ints in memory in canonical form, NReq=924796.
 Iterations=  50 Convergence= 0.100D-07
 Iteration Nr.   1
 **********************
 DD1Dir will call FoFMem   1 times, MxPair=        42
 NAB=    21 NAA=     0 NBB=     0.
 MP4(R+Q)=  0.16930295D-02
 E3=       -0.16902171D-01        EUMP3=      -0.77797716204D+02
 E4(DQ)=   -0.52445049D-02        UMP4(DQ)=   -0.77802960709D+02
 E4(SDQ)=  -0.68086145D-02        UMP4(SDQ)=  -0.77804524818D+02
 DE(Corr)= -0.19572624     E(Corr)=     -77.795937062    
 NORM(A)=   0.10453863D+01
 Iteration Nr.   2
 **********************
 DD1Dir will call FoFMem   1 times, MxPair=        42
 NAB=    21 NAA=     0 NBB=     0.
 DE(Corr)= -0.20330351     E(CORR)=     -77.803514323     Delta=-7.58D-03
 NORM(A)=   0.10523769D+01
 Iteration Nr.   3
 **********************
 DD1Dir will call FoFMem   1 times, MxPair=        42
 NAB=    21 NAA=     0 NBB=     0.
 DE(Corr)= -0.20626026     E(CORR)=     -77.806471075     Delta=-2.96D-03
 NORM(A)=   0.10543315D+01
 Iteration Nr.   4
 **********************
 DD1Dir will call FoFMem   1 times, MxPair=        42
 NAB=    21 NAA=     0 NBB=     0.
 DE(Corr)= -0.20714335     E(CORR)=     -77.807354164     Delta=-8.83D-04
 NORM(A)=   0.10547536D+01
 Iteration Nr.   5
 **********************
 DD1Dir will call FoFMem   1 times, MxPair=        42
 NAB=    21 NAA=     0 NBB=     0.
 DE(Corr)= -0.20723853     E(CORR)=     -77.807449352     Delta=-9.52D-05
 NORM(A)=   0.10547784D+01
 Iteration Nr.   6
 **********************
 DD1Dir will call FoFMem   1 times, MxPair=        42
 NAB=    21 NAA=     0 NBB=     0.
 DE(Corr)= -0.20723929     E(CORR)=     -77.807450110     Delta=-7.58D-07
 NORM(A)=   0.10547787D+01
 Iteration Nr.   7
 **********************
 DD1Dir will call FoFMem   1 times, MxPair=        42
 NAB=    21 NAA=     0 NBB=     0.
 DE(Corr)= -0.20723880     E(CORR)=     -77.807449621     Delta= 4.88D-07
 NORM(A)=   0.10547802D+01
 Iteration Nr.   8
 **********************
 DD1Dir will call FoFMem   1 times, MxPair=        42
 NAB=    21 NAA=     0 NBB=     0.
 DE(Corr)= -0.20723907     E(CORR)=     -77.807449884     Delta=-2.62D-07
 NORM(A)=   0.10547799D+01
 Iteration Nr.   9
 **********************
 DD1Dir will call FoFMem   1 times, MxPair=        42
 NAB=    21 NAA=     0 NBB=     0.
 DE(Corr)= -0.20723907     E(CORR)=     -77.807449887     Delta=-3.88D-09
 NORM(A)=   0.10547800D+01
 Iteration Nr.  10
 **********************
 DD1Dir will call FoFMem   1 times, MxPair=        42
 NAB=    21 NAA=     0 NBB=     0.
 DE(Corr)= -0.20723907     E(CORR)=     -77.807449887     Delta= 2.97D-10
 NORM(A)=   0.10547799D+01
 Iteration Nr.  11
 **********************
 DD1Dir will call FoFMem   1 times, MxPair=        42
 NAB=    21 NAA=     0 NBB=     0.
 DE(Corr)= -0.20723907     E(CORR)=     -77.807449886     Delta= 1.38D-09
 NORM(A)=   0.10547799D+01
 Dominant configurations:
 ***********************
 Spin Case        I    J    A    B          Value
   ABAB           8    8    9    9      -0.166097D+00
 Largest amplitude= 1.66D-01

 Z-AMPLITUDE ITERATIONS

 Iteration Nr.   1
 **********************
 DD1Dir will call FoFMem   1 times, MxPair=        42
 NAB=    21 NAA=     0 NBB=     0.
 DE(Z)  -0.20311405D+00          E(Z)=    -0.77803324868D+02
 NORM(A)=   0.10547802D+01
 Iteration Nr.   2
 **********************
 DD1Dir will call FoFMem   1 times, MxPair=        42
 NAB=    21 NAA=     0 NBB=     0.
 DE(Z)  -0.20311412D+00          E(Z)=    -0.77803324942D+02
 NORM(A)=   0.10547812D+01
 Iteration Nr.   3
 **********************
 DD1Dir will call FoFMem   1 times, MxPair=        42
 NAB=    21 NAA=     0 NBB=     0.
 DE(Z)  -0.20311441D+00          E(Z)=    -0.77803325229D+02
 NORM(A)=   0.10547837D+01
 Iteration Nr.   4
 **********************
 DD1Dir will call FoFMem   1 times, MxPair=        42
 NAB=    21 NAA=     0 NBB=     0.
 DE(Z)  -0.20311510D+00          E(Z)=    -0.77803325915D+02
 NORM(A)=   0.10548224D+01
 Iteration Nr.   5
 **********************
 DD1Dir will call FoFMem   1 times, MxPair=        42
 NAB=    21 NAA=     0 NBB=     0.
 DE(Z)  -0.20312583D+00          E(Z)=    -0.77803336648D+02
 NORM(A)=   0.10514248D+01
 Iteration Nr.   6
 **********************
 DD1Dir will call FoFMem   1 times, MxPair=        42
 NAB=    21 NAA=     0 NBB=     0.
 DE(Z)  -0.20214169D+00          E(Z)=    -0.77802352511D+02
 NORM(A)=   0.10514244D+01
 Iteration Nr.   7
 **********************
 DD1Dir will call FoFMem   1 times, MxPair=        42
 NAB=    21 NAA=     0 NBB=     0.
 DE(Z)  -0.20214167D+00          E(Z)=    -0.77802352482D+02
 NORM(A)=   0.10514242D+01
 Iteration Nr.   8
 **********************
 DD1Dir will call FoFMem   1 times, MxPair=        42
 NAB=    21 NAA=     0 NBB=     0.
 DE(Z)  -0.20214165D+00          E(Z)=    -0.77802352464D+02
 NORM(A)=   0.10514242D+01
 Iteration Nr.   9
 **********************
 DD1Dir will call FoFMem   1 times, MxPair=        42
 NAB=    21 NAA=     0 NBB=     0.
 DE(Z)  -0.20214164D+00          E(Z)=    -0.77802352452D+02
 NORM(A)=   0.10514242D+01
 Iteration Nr.  10
 **********************
 DD1Dir will call FoFMem   1 times, MxPair=        42
 NAB=    21 NAA=     0 NBB=     0.
 DE(Z)  -0.20214163D+00          E(Z)=    -0.77802352449D+02
 NORM(A)=   0.10514242D+01
 Discarding MO integrals.
          IDoAtm=111111
          Differentiating once with respect to electric field.
                with respect to dipole field.
          Differentiating once with respect to nuclear coordinates.
 Keep R1 ints in memory in canonical form, NReq=871298.
          There are     1 degrees of freedom in the 1st order CPHF.  IDoFFX=0 NUNeed=     1.
 LinEq1:  Iter=  0 NonCon=     1 RMS=6.80D-03 Max=7.09D-02 NDo=     1
 AX will form     1 AO Fock derivatives at one time.
 LinEq1:  Iter=  1 NonCon=     1 RMS=2.12D-03 Max=1.26D-02 NDo=     1
 LinEq1:  Iter=  2 NonCon=     1 RMS=2.04D-04 Max=1.59D-03 NDo=     1
 LinEq1:  Iter=  3 NonCon=     1 RMS=1.36D-05 Max=7.34D-05 NDo=     1
 LinEq1:  Iter=  4 NonCon=     1 RMS=7.90D-07 Max=5.23D-06 NDo=     1
 LinEq1:  Iter=  5 NonCon=     1 RMS=4.45D-08 Max=2.15D-07 NDo=     1
 LinEq1:  Iter=  6 NonCon=     1 RMS=3.12D-09 Max=1.70D-08 NDo=     1
 LinEq1:  Iter=  7 NonCon=     1 RMS=7.05D-10 Max=5.45D-09 NDo=     1
 LinEq1:  Iter=  8 NonCon=     1 RMS=2.17D-10 Max=9.87D-10 NDo=     1
 LinEq1:  Iter=  9 NonCon=     0 RMS=1.29D-11 Max=7.31D-11 NDo=     1
 Linear equations converged to 1.000D-10 1.000D-09 after     9 iterations.
 End of Minotr F.D. properties file   721 does not exist.
 End of Minotr F.D. properties file   722 does not exist.
 End of Minotr F.D. properties file   788 does not exist.

 **********************************************************************

            Population analysis using the SCF density.

 **********************************************************************

 Orbital symmetries:
       Occupied  (A) (A) (A) (A) (A) (A) (A) (A)
       Virtual   (A) (A) (A) (A) (A) (A) (A) (A) (A) (A) (A) (A)
                 (A) (A) (A) (A) (A) (A)
 The electronic state is 1-A.
 Alpha  occ. eigenvalues --  -11.17061 -11.17050  -1.03430  -0.78227  -0.64411
 Alpha  occ. eigenvalues --   -0.58344  -0.49812  -0.37778
 Alpha virt. eigenvalues --    0.18438   0.29272   0.30948   0.33870   0.43621
 Alpha virt. eigenvalues --    0.53945   0.87438   0.93805   0.99114   1.07790
 Alpha virt. eigenvalues --    1.11103   1.12082   1.31434   1.34613   1.39350
 Alpha virt. eigenvalues --    1.65396   1.66055   1.97153
          Condensed to atoms (all electrons):
               1          2          3          4          5          6
     1  C    5.212305   0.523628   0.393287   0.393288  -0.049457  -0.049458
     2  C    0.523628   5.212305  -0.049458  -0.049458   0.393287   0.393287
     3  H    0.393287  -0.049458   0.464725  -0.020367  -0.002130   0.002145
     4  H    0.393288  -0.049458  -0.020367   0.464723   0.002145  -0.002130
     5  H   -0.049457   0.393287  -0.002130   0.002145   0.464724  -0.020367
     6  H   -0.049458   0.393287   0.002145  -0.002130  -0.020367   0.464727
 Mulliken charges:
               1
     1  C   -0.423594
     2  C   -0.423592
     3  H    0.211796
     4  H    0.211798
     5  H    0.211797
     6  H    0.211795
 Sum of Mulliken charges =   0.00000
 Mulliken charges with hydrogens summed into heavy atoms:
               1
     1  C    0.000000
     2  C    0.000000
 Electronic spatial extent (au):  <R**2>=             82.4750
 Charge=              0.0000 electrons
 Dipole moment (field-independent basis, Debye):
    X=              0.0000    Y=              0.0000    Z=              0.0000  Tot=              0.0000
 Quadrupole moment (field-independent basis, Debye-Ang):
   XX=            -12.2274   YY=            -12.2489   ZZ=            -15.7273
   XY=              0.0000   XZ=              0.0000   YZ=              0.0000
 Traceless Quadrupole moment (field-independent basis, Debye-Ang):
   XX=              1.1738   YY=              1.1523   ZZ=             -2.3261
   XY=              0.0000   XZ=              0.0000   YZ=              0.0000
 Octapole moment (field-independent basis, Debye-Ang**2):
  XXX=              0.0000  YYY=              0.0000  ZZZ=              0.0000  XYY=              0.0000
  XXY=              0.0000  XXZ=              0.0000  XZZ=              0.0000  YZZ=              0.0000
  YYZ=              0.0000  XYZ=              0.0000
 Hexadecapole moment (field-independent basis, Debye-Ang**3):
 XXXX=            -65.3440 YYYY=            -25.2067 ZZZZ=            -16.4761 XXXY=              0.0001
 XXXZ=              0.0000 YYYX=              0.0000 YYYZ=              0.0000 ZZZX=              0.0000
 ZZZY=              0.0000 XXYY=            -12.3247 XXZZ=            -14.7768 YYZZ=             -7.6339
 XXYZ=              0.0000 YYXZ=              0.0000 ZZXY=              0.0000
 N-N= 3.344535691183D+01 E-N=-2.468881635824D+02  KE= 7.731930305396D+01
 Calling FoFJK, ICntrl=  10002127 FMM=F ISym2X=0 I1Cent= 0 IOpClX= 0 NMat=1 NMatS=1 NMatT=0.
 ***** Axes restored to original set *****
 -------------------------------------------------------------------
 Center     Atomic                   Forces (Hartrees/Bohr)
 Number     Number              X              Y              Z
 -------------------------------------------------------------------
      1        6          -0.016215143   -0.004492445    0.006326832
      2        6           0.016218744    0.004491619   -0.006326526
      3        1          -0.003437558   -0.000803799    0.001157085
      4        1          -0.003258010   -0.001047036    0.001450616
      5        1           0.003254911    0.001047759   -0.001450707
      6        1           0.003437055    0.000803901   -0.001157301
 -------------------------------------------------------------------
 Cartesian Forces:  Max     0.016218744 RMS     0.006243226

 GradGradGradGradGradGradGradGradGradGradGradGradGradGradGradGradGradGrad
 Berny optimization.
 FormGI is forming the generalized inverse of G from B-inverse, IUseBI=4.
 Internal  Forces:  Max     0.025396136 RMS     0.006917316
 Search for a local minimum.
 Step number   1 out of a maximum of   25
 All quantities printed in internal units (Hartrees-Bohrs-Radians)
 Mixed Optimization -- RFO/linear search
 Second derivative matrix not updated -- first step.
 The second derivative matrix:
                          R1        R2        R3        R4        R5
           R1           0.60818
           R2           0.00000   0.35131
           R3           0.00000   0.00000   0.35131
           R4           0.00000   0.00000   0.00000   0.35131
           R5           0.00000   0.00000   0.00000   0.00000   0.35131
           A1           0.00000   0.00000   0.00000   0.00000   0.00000
           A2           0.00000   0.00000   0.00000   0.00000   0.00000
           A3           0.00000   0.00000   0.00000   0.00000   0.00000
           A4           0.00000   0.00000   0.00000   0.00000   0.00000
           A5           0.00000   0.00000   0.00000   0.00000   0.00000
           A6           0.00000   0.00000   0.00000   0.00000   0.00000
           D1           0.00000   0.00000   0.00000   0.00000   0.00000
           D2           0.00000   0.00000   0.00000   0.00000   0.00000
           D3           0.00000   0.00000   0.00000   0.00000   0.00000
           D4           0.00000   0.00000   0.00000   0.00000   0.00000
                          A1        A2        A3        A4        A5
           A1           0.16000
           A2           0.00000   0.16000
           A3           0.00000   0.00000   0.16000
           A4           0.00000   0.00000   0.00000   0.16000
           A5           0.00000   0.00000   0.00000   0.00000   0.16000
           A6           0.00000   0.00000   0.00000   0.00000   0.00000
           D1           0.00000   0.00000   0.00000   0.00000   0.00000
           D2           0.00000   0.00000   0.00000   0.00000   0.00000
           D3           0.00000   0.00000   0.00000   0.00000   0.00000
           D4           0.00000   0.00000   0.00000   0.00000   0.00000
                          A6        D1        D2        D3        D4
           A6           0.16000
           D1           0.00000   0.03087
           D2           0.00000   0.00000   0.03087
           D3           0.00000   0.00000   0.00000   0.03087
           D4           0.00000   0.00000   0.00000   0.00000   0.03087
 ITU=  0
     Eigenvalues ---    0.03087   0.03087   0.03087   0.16000   0.16000
     Eigenvalues ---    0.16000   0.16000   0.35131   0.35131   0.35131
     Eigenvalues ---    0.35131   0.60818
 RFO step:  Lambda=-1.46806938D-03 EMin= 3.08716499D-02
 Linear search not attempted -- first point.
 Iteration  1 RMS(Cart)=  0.02643447 RMS(Int)=  0.00010713
 Iteration  2 RMS(Cart)=  0.00010892 RMS(Int)=  0.00000000
 Iteration  3 RMS(Cart)=  0.00000000 RMS(Int)=  0.00000000
 Variable       Old X    -DE/DX   Delta X   Delta X   Delta X     New X
                                 (Linear)    (Quad)   (Total)
    R1        2.50299   0.02540   0.00000   0.04166   0.04166   2.54464
    R2        2.05463   0.00174   0.00000   0.00492   0.00492   2.05955
    R3        2.05462   0.00174   0.00000   0.00493   0.00493   2.05955
    R4        2.05463   0.00174   0.00000   0.00493   0.00493   2.05955
    R5        2.05463   0.00174   0.00000   0.00492   0.00492   2.05955
    A1        2.11435   0.00225   0.00000   0.01393   0.01393   2.12828
    A2        2.11435   0.00225   0.00000   0.01393   0.01393   2.12828
    A3        2.05449  -0.00450   0.00000  -0.02786  -0.02786   2.02663
    A4        2.11436   0.00225   0.00000   0.01392   0.01392   2.12828
    A5        2.11435   0.00225   0.00000   0.01393   0.01393   2.12828
    A6        2.05448  -0.00450   0.00000  -0.02785  -0.02785   2.02663
    D1        0.00000   0.00000   0.00000   0.00000   0.00000   0.00000
    D2        3.14159   0.00000   0.00000   0.00000   0.00000  -3.14159
    D3       -3.14159   0.00000   0.00000  -0.00001  -0.00001   3.14159
    D4        0.00000   0.00000   0.00000   0.00000   0.00000   0.00000
         Item               Value     Threshold  Converged?
 Maximum Force            0.025396     0.000450     NO 
 RMS     Force            0.006917     0.000300     NO 
 Maximum Displacement     0.047793     0.001800     NO 
 RMS     Displacement     0.026435     0.001200     NO 
 Predicted change in Energy=-7.370885D-04
 GradGradGradGradGradGradGradGradGradGradGradGradGradGradGradGradGradGrad

                          Input orientation:                          
 ---------------------------------------------------------------------
 Center     Atomic      Atomic             Coordinates (Angstroms)
 Number     Number       Type             X           Y           Z
 ---------------------------------------------------------------------
      1          6           0       -0.755801   -1.175305    1.561707
      2          6           0        0.459004   -0.838997    1.088010
      3          1           0       -0.877897   -1.852478    2.406895
      4          1           0       -1.674057   -0.786141    1.122191
      5          1           0        1.377260   -1.228157    1.527525
      6          1           0        0.581101   -0.161822    0.242822
 ---------------------------------------------------------------------
                    Distance matrix (angstroms):
                    1          2          3          4          5
     1  C    0.000000
     2  C    1.346567   0.000000
     3  H    1.089869   2.133989   0.000000
     4  H    1.089869   2.133989   1.849705   0.000000
     5  H    2.133990   1.089869   2.499761   3.109696   0.000000
     6  H    2.133990   1.089869   3.109696   2.499760   1.849703
                    6
     6  H    0.000000
 Stoichiometry    C2H4
 Framework group  C1[X(C2H4)]
 Deg. of freedom    12
 Full point group                 C1      NOp   1
 Largest Abelian subgroup         C1      NOp   1
 Largest concise Abelian subgroup C1      NOp   1
                         Standard orientation:                         
 ---------------------------------------------------------------------
 Center     Atomic      Atomic             Coordinates (Angstroms)
 Number     Number       Type             X           Y           Z
 ---------------------------------------------------------------------
      1          6           0        0.673284    0.000000    0.000000
      2          6           0       -0.673284    0.000000    0.000000
      3          1           0        1.249880   -0.924853   -0.000001
      4          1           0        1.249880    0.924852   -0.000001
      5          1           0       -1.249882   -0.924851   -0.000001
      6          1           0       -1.249880    0.924852   -0.000001
 ---------------------------------------------------------------------
 Rotational constants (GHZ):    146.5640934     29.4215643     24.5028201
 Standard basis: 3-21G (6D, 7F)
 There are    26 symmetry adapted cartesian basis functions of A   symmetry.
 There are    26 symmetry adapted basis functions of A   symmetry.
    26 basis functions,    42 primitive gaussians,    26 cartesian basis functions
     8 alpha electrons        8 beta electrons
       nuclear repulsion energy        33.0876817446 Hartrees.
 NAtoms=    6 NActive=    6 NUniq=    6 SFac= 1.00D+00 NAtFMM=   60 NAOKFM=F Big=F
 Integral buffers will be    131072 words long.
 Raffenetti 1 integral format.
 Two-electron integral symmetry is turned on.
 One-electron integrals computed using PRISM.
 NBasis=    26 RedAO= T EigKep=  1.70D-02  NBF=    26
 NBsUse=    26 1.00D-06 EigRej= -1.00D+00 NBFU=    26
 Initial guess from the checkpoint file:  "/scr/Gau-317.chk"
 B after Tr=     0.000000    0.000000    0.000000
         Rot=    1.000000    0.000000    0.000000    0.000000 Ang=   0.00 deg.
 ExpMin= 1.83D-01 ExpMax= 1.72D+02 ExpMxC= 1.72D+02 IAcc=1 IRadAn=         1 AccDes= 0.00D+00
 Harris functional with IExCor=  205 and IRadAn=       1 diagonalized for initial guess.
 HarFok:  IExCor=  205 AccDes= 0.00D+00 IRadAn=         1 IDoV= 1 UseB2=F ITyADJ=14
 ICtDFT=  3500011 ScaDFX=  1.000000  1.000000  1.000000  1.000000
 FoFCou: FMM=F IPFlag=           0 FMFlag=      100000 FMFlg1=           0
         NFxFlg=           0 DoJE=T BraDBF=F KetDBF=T FulRan=T
         wScrn=  0.000000 ICntrl=     500 IOpCl=  0 I1Cent=   200000004 NGrid=           0
         NMat0=    1 NMatS0=      1 NMatT0=    0 NMatD0=    1 NMtDS0=    0 NMtDT0=    0
 Petite list used in FoFCou.
 Keep R1 ints in memory in canonical form, NReq=889329.
 Requested convergence on RMS density matrix=1.00D-08 within 128 cycles.
 Requested convergence on MAX density matrix=1.00D-06.
 Requested convergence on             energy=1.00D-06.
 No special actions if energy rises.
 SCF Done:  E(RHF) =  -77.5989488334     A.U. after    8 cycles
            NFock=  8  Conv=0.14D-08     -V/T= 2.0048
 ExpMin= 1.83D-01 ExpMax= 1.72D+02 ExpMxC= 1.72D+02 IAcc=3 IRadAn=         5 AccDes= 0.00D+00
 HarFok:  IExCor=  205 AccDes= 0.00D+00 IRadAn=         5 IDoV=-2 UseB2=F ITyADJ=14
 ICtDFT= 12500011 ScaDFX=  1.000000  1.000000  1.000000  1.000000
 Range of M.O.s used for correlation:     3    26
 NBasis=    26 NAE=     8 NBE=     8 NFC=     2 NFV=     0
 NROrb=     24 NOA=     6 NOB=     6 NVA=    18 NVB=    18
 Semi-Direct transformation.
 ModeAB=           2 MOrb=             6 LenV=      33437287
 LASXX=        32223 LTotXX=       32223 LenRXX=       32223
 LTotAB=       36432 MaxLAS=       50544 LenRXY=       50544
 NonZer=       64446 LenScr=      785920 LnRSAI=           0
 LnScr1=           0 LExtra=           0 Total=       868687
 MaxDsk=          -1 SrtSym=           F ITran=            4
 JobTyp=0 Pass  1:  I=   1 to   6.
 (rs|ai) integrals will be sorted in core.
 SymMOI:  orbitals are not symmetric.
 Spin components of T(2) and E(2):
     alpha-alpha T2 =       0.7210173672D-02 E2=     -0.1848946274D-01
     alpha-beta  T2 =       0.5997742715D-01 E2=     -0.1453000447D+00
     beta-beta   T2 =       0.7210173672D-02 E2=     -0.1848946274D-01
 ANorm=    0.1036531608D+01
 E2 =    -0.1822789702D+00 EUMP2 =    -0.77781227803602D+02
 Keep R2 and R3 ints in memory in canonical form, NReq=924796.
 Iterations=  50 Convergence= 0.100D-07
 Iteration Nr.   1
 **********************
 DD1Dir will call FoFMem   1 times, MxPair=        42
 NAB=    21 NAA=     0 NBB=     0.
 MP4(R+Q)=  0.17503625D-02
 E3=       -0.16817458D-01        EUMP3=      -0.77798045261D+02
 E4(DQ)=   -0.53732830D-02        UMP4(DQ)=   -0.77803418544D+02
 E4(SDQ)=  -0.70367972D-02        UMP4(SDQ)=  -0.77805082058D+02
 DE(Corr)= -0.19725150     E(Corr)=     -77.796200334    
 NORM(A)=   0.10463464D+01
 Iteration Nr.   2
 **********************
 DD1Dir will call FoFMem   1 times, MxPair=        42
 NAB=    21 NAA=     0 NBB=     0.
 DE(Corr)= -0.20504007     E(CORR)=     -77.803988907     Delta=-7.79D-03
 NORM(A)=   0.10537296D+01
 Iteration Nr.   3
 **********************
 DD1Dir will call FoFMem   1 times, MxPair=        42
 NAB=    21 NAA=     0 NBB=     0.
 DE(Corr)= -0.20809086     E(CORR)=     -77.807039690     Delta=-3.05D-03
 NORM(A)=   0.10558773D+01
 Iteration Nr.   4
 **********************
 DD1Dir will call FoFMem   1 times, MxPair=        42
 NAB=    21 NAA=     0 NBB=     0.
 DE(Corr)= -0.20904406     E(CORR)=     -77.807992893     Delta=-9.53D-04
 NORM(A)=   0.10563548D+01
 Iteration Nr.   5
 **********************
 DD1Dir will call FoFMem   1 times, MxPair=        42
 NAB=    21 NAA=     0 NBB=     0.
 DE(Corr)= -0.20914957     E(CORR)=     -77.808098406     Delta=-1.06D-04
 NORM(A)=   0.10563825D+01
 Iteration Nr.   6
 **********************
 DD1Dir will call FoFMem   1 times, MxPair=        42
 NAB=    21 NAA=     0 NBB=     0.
 DE(Corr)= -0.20915026     E(CORR)=     -77.808099094     Delta=-6.87D-07
 NORM(A)=   0.10563830D+01
 Iteration Nr.   7
 **********************
 DD1Dir will call FoFMem   1 times, MxPair=        42
 NAB=    21 NAA=     0 NBB=     0.
 DE(Corr)= -0.20914972     E(CORR)=     -77.808098551     Delta= 5.42D-07
 NORM(A)=   0.10563848D+01
 Iteration Nr.   8
 **********************
 DD1Dir will call FoFMem   1 times, MxPair=        42
 NAB=    21 NAA=     0 NBB=     0.
 DE(Corr)= -0.20915001     E(CORR)=     -77.808098841     Delta=-2.89D-07
 NORM(A)=   0.10563846D+01
 Iteration Nr.   9
 **********************
 DD1Dir will call FoFMem   1 times, MxPair=        42
 NAB=    21 NAA=     0 NBB=     0.
 DE(Corr)= -0.20915001     E(CORR)=     -77.808098843     Delta=-2.47D-09
 NORM(A)=   0.10563846D+01
 Iteration Nr.  10
 **********************
 DD1Dir will call FoFMem   1 times, MxPair=        42
 NAB=    21 NAA=     0 NBB=     0.
 DE(Corr)= -0.20915001     E(CORR)=     -77.808098843     Delta= 4.19D-11
 NORM(A)=   0.10563846D+01
 Iteration Nr.  11
 **********************
 DD1Dir will call FoFMem   1 times, MxPair=        42
 NAB=    21 NAA=     0 NBB=     0.
 DE(Corr)= -0.20915001     E(CORR)=     -77.808098843     Delta= 7.26D-10
 NORM(A)=   0.10563846D+01
 Dominant configurations:
 ***********************
 Spin Case        I    J    A    B          Value
   ABAB           8    8    9    9      -0.172372D+00
 Largest amplitude= 1.72D-01

 Z-AMPLITUDE ITERATIONS

 Iteration Nr.   1
 **********************
 DD1Dir will call FoFMem   1 times, MxPair=        42
 NAB=    21 NAA=     0 NBB=     0.
 DE(Z)  -0.20479715D+00          E(Z)=    -0.77803745979D+02
 NORM(A)=   0.10563849D+01
 Iteration Nr.   2
 **********************
 DD1Dir will call FoFMem   1 times, MxPair=        42
 NAB=    21 NAA=     0 NBB=     0.
 DE(Z)  -0.20479724D+00          E(Z)=    -0.77803746071D+02
 NORM(A)=   0.10563996D+01
 Iteration Nr.   3
 **********************
 DD1Dir will call FoFMem   1 times, MxPair=        42
 NAB=    21 NAA=     0 NBB=     0.
 DE(Z)  -0.20480123D+00          E(Z)=    -0.77803750062D+02
 NORM(A)=   0.10563893D+01
 Iteration Nr.   4
 **********************
 DD1Dir will call FoFMem   1 times, MxPair=        42
 NAB=    21 NAA=     0 NBB=     0.
 DE(Z)  -0.20479841D+00          E(Z)=    -0.77803747244D+02
 NORM(A)=   0.10563459D+01
 Iteration Nr.   5
 **********************
 DD1Dir will call FoFMem   1 times, MxPair=        42
 NAB=    21 NAA=     0 NBB=     0.
 DE(Z)  -0.20478673D+00          E(Z)=    -0.77803735567D+02
 NORM(A)=   0.10527648D+01
 Iteration Nr.   6
 **********************
 DD1Dir will call FoFMem   1 times, MxPair=        42
 NAB=    21 NAA=     0 NBB=     0.
 DE(Z)  -0.20377844D+00          E(Z)=    -0.77802727273D+02
 NORM(A)=   0.10527643D+01
 Iteration Nr.   7
 **********************
 DD1Dir will call FoFMem   1 times, MxPair=        42
 NAB=    21 NAA=     0 NBB=     0.
 DE(Z)  -0.20377848D+00          E(Z)=    -0.77802727315D+02
 NORM(A)=   0.10527641D+01
 Iteration Nr.   8
 **********************
 DD1Dir will call FoFMem   1 times, MxPair=        42
 NAB=    21 NAA=     0 NBB=     0.
 DE(Z)  -0.20377844D+00          E(Z)=    -0.77802727271D+02
 NORM(A)=   0.10527640D+01
 Iteration Nr.   9
 **********************
 DD1Dir will call FoFMem   1 times, MxPair=        42
 NAB=    21 NAA=     0 NBB=     0.
 DE(Z)  -0.20377842D+00          E(Z)=    -0.77802727254D+02
 NORM(A)=   0.10527640D+01
 Iteration Nr.  10
 **********************
 DD1Dir will call FoFMem   1 times, MxPair=        42
 NAB=    21 NAA=     0 NBB=     0.
 DE(Z)  -0.20377842D+00          E(Z)=    -0.77802727250D+02
 NORM(A)=   0.10527640D+01
 Discarding MO integrals.
          IDoAtm=111111
          Differentiating once with respect to electric field.
                with respect to dipole field.
          Differentiating once with respect to nuclear coordinates.
 Keep R1 ints in memory in canonical form, NReq=871298.
          There are     1 degrees of freedom in the 1st order CPHF.  IDoFFX=0 NUNeed=     1.
 LinEq1:  Iter=  0 NonCon=     1 RMS=6.99D-03 Max=7.32D-02 NDo=     1
 AX will form     1 AO Fock derivatives at one time.
 LinEq1:  Iter=  1 NonCon=     1 RMS=2.19D-03 Max=1.31D-02 NDo=     1
 LinEq1:  Iter=  2 NonCon=     1 RMS=2.05D-04 Max=1.60D-03 NDo=     1
 LinEq1:  Iter=  3 NonCon=     1 RMS=1.37D-05 Max=7.19D-05 NDo=     1
 LinEq1:  Iter=  4 NonCon=     1 RMS=7.88D-07 Max=5.07D-06 NDo=     1
 LinEq1:  Iter=  5 NonCon=     1 RMS=4.38D-08 Max=2.06D-07 NDo=     1
 LinEq1:  Iter=  6 NonCon=     1 RMS=2.49D-09 Max=1.41D-08 NDo=     1
 LinEq1:  Iter=  7 NonCon=     1 RMS=2.40D-10 Max=1.13D-09 NDo=     1
 LinEq1:  Iter=  8 NonCon=     0 RMS=4.28D-11 Max=3.46D-10 NDo=     1
 Linear equations converged to 1.000D-10 1.000D-09 after     8 iterations.
 End of Minotr F.D. properties file   721 does not exist.
 End of Minotr F.D. properties file   722 does not exist.
 End of Minotr F.D. properties file   788 does not exist.
 Calling FoFJK, ICntrl=  10002127 FMM=F ISym2X=0 I1Cent= 0 IOpClX= 0 NMat=1 NMatS=1 NMatT=0.
 ***** Axes restored to original set *****
 -------------------------------------------------------------------
 Center     Atomic                   Forces (Hartrees/Bohr)
 Number     Number              X              Y              Z
 -------------------------------------------------------------------
      1        6           0.003034401    0.000839915   -0.001182900
      2        6          -0.003033986   -0.000839513    0.001182699
      3        1          -0.000004414    0.000050545   -0.000062529
      4        1           0.000059598   -0.000035241    0.000040818
      5        1          -0.000059747    0.000034973   -0.000040645
      6        1           0.000004147   -0.000050679    0.000062558
 -------------------------------------------------------------------
 Cartesian Forces:  Max     0.003034401 RMS     0.001121676

 GradGradGradGradGradGradGradGradGradGradGradGradGradGradGradGradGradGrad
 Berny optimization.
 Using GEDIIS/GDIIS optimizer.
 FormGI is forming the generalized inverse of G from B-inverse, IUseBI=4.
 Internal  Forces:  Max     0.003424620 RMS     0.000885219
 Search for a local minimum.
 Step number   2 out of a maximum of   25
 All quantities printed in internal units (Hartrees-Bohrs-Radians)
 Mixed Optimization -- En-DIIS/RFO-DIIS
 Update second derivatives using D2CorX and points    1    2
 DE= -6.49D-04 DEPred=-7.37D-04 R= 8.80D-01
 TightC=F SS=  1.41D+00  RLast= 6.45D-02 DXNew= 5.0454D-01 1.9350D-01
 Trust test= 8.80D-01 RLast= 6.45D-02 DXMaxT set to 3.00D-01
 The second derivative matrix:
                          R1        R2        R3        R4        R5
           R1           0.68481
           R2           0.00252   0.35131
           R3           0.00252   0.00000   0.35132
           R4           0.00252   0.00000   0.00000   0.35131
           R5           0.00253   0.00000   0.00000   0.00000   0.35131
           A1           0.00146  -0.00011  -0.00011  -0.00011  -0.00011
           A2           0.00146  -0.00011  -0.00011  -0.00011  -0.00011
           A3          -0.00291   0.00022   0.00022   0.00022   0.00022
           A4           0.00146  -0.00011  -0.00011  -0.00011  -0.00011
           A5           0.00146  -0.00011  -0.00011  -0.00011  -0.00011
           A6          -0.00292   0.00022   0.00022   0.00022   0.00022
           D1           0.00000   0.00000   0.00000   0.00000   0.00000
           D2           0.00000   0.00000   0.00000   0.00000   0.00000
           D3           0.00000   0.00000   0.00000   0.00000   0.00000
           D4           0.00000   0.00000   0.00000   0.00000   0.00000
                          A1        A2        A3        A4        A5
           A1           0.15972
           A2          -0.00028   0.15972
           A3           0.00057   0.00057   0.15887
           A4          -0.00028  -0.00028   0.00056   0.15972
           A5          -0.00028  -0.00028   0.00057  -0.00028   0.15972
           A6           0.00056   0.00056  -0.00113   0.00056   0.00056
           D1           0.00000   0.00000   0.00000   0.00000   0.00000
           D2           0.00000   0.00000   0.00000   0.00000   0.00000
           D3           0.00000   0.00000   0.00000   0.00000   0.00000
           D4           0.00000   0.00000   0.00000   0.00000   0.00000
                          A6        D1        D2        D3        D4
           A6           0.15887
           D1           0.00000   0.03087
           D2           0.00000   0.00000   0.03087
           D3           0.00000   0.00000   0.00000   0.03087
           D4           0.00000   0.00000   0.00000   0.00000   0.03087
 ITU=  1  0
 Use linear search instead of GDIIS.
     Eigenvalues ---    0.03087   0.03087   0.03087   0.15656   0.16000
     Eigenvalues ---    0.16000   0.16000   0.35124   0.35131   0.35131
     Eigenvalues ---    0.35131   0.68494
 RFO step:  Lambda=-3.99647150D-06 EMin= 3.08716499D-02
 Quartic linear search produced a step of -0.09287.
 Iteration  1 RMS(Cart)=  0.00169298 RMS(Int)=  0.00000000
 Iteration  2 RMS(Cart)=  0.00000000 RMS(Int)=  0.00000000
 Variable       Old X    -DE/DX   Delta X   Delta X   Delta X     New X
                                 (Linear)    (Quad)   (Total)
    R1        2.54464  -0.00342  -0.00387  -0.00123  -0.00510   2.53955
    R2        2.05955  -0.00008  -0.00046   0.00024  -0.00021   2.05934
    R3        2.05955  -0.00008  -0.00046   0.00025  -0.00021   2.05934
    R4        2.05955  -0.00008  -0.00046   0.00025  -0.00021   2.05934
    R5        2.05955  -0.00008  -0.00046   0.00024  -0.00021   2.05934
    A1        2.12828   0.00001  -0.00129   0.00125  -0.00004   2.12824
    A2        2.12828   0.00001  -0.00129   0.00125  -0.00004   2.12824
    A3        2.02663  -0.00002   0.00259  -0.00250   0.00008   2.02671
    A4        2.12828   0.00001  -0.00129   0.00125  -0.00004   2.12824
    A5        2.12828   0.00001  -0.00129   0.00125  -0.00004   2.12824
    A6        2.02663  -0.00002   0.00259  -0.00250   0.00009   2.02671
    D1        0.00000   0.00000   0.00000   0.00000   0.00000   0.00000
    D2       -3.14159   0.00000   0.00000   0.00000   0.00000   3.14159
    D3        3.14159   0.00000   0.00000   0.00000   0.00000  -3.14159
    D4        0.00000   0.00000   0.00000   0.00000   0.00000   0.00000
         Item               Value     Threshold  Converged?
 Maximum Force            0.003425     0.000450     NO 
 RMS     Force            0.000885     0.000300     NO 
 Maximum Displacement     0.002526     0.001800     NO 
 RMS     Displacement     0.001693     0.001200     NO 
 Predicted change in Energy=-8.574453D-06
 GradGradGradGradGradGradGradGradGradGradGradGradGradGradGradGradGradGrad

                          Input orientation:                          
 ---------------------------------------------------------------------
 Center     Atomic      Atomic             Coordinates (Angstroms)
 Number     Number       Type             X           Y           Z
 ---------------------------------------------------------------------
      1          6           0       -0.754584   -1.174967    1.561233
      2          6           0        0.457787   -0.839333    1.088484
      3          1           0       -0.876622   -1.852076    2.406336
      4          1           0       -1.672720   -0.785822    1.121731
      5          1           0        1.375924   -1.228478    1.527985
      6          1           0        0.579826   -0.162224    0.243381
 ---------------------------------------------------------------------
                    Distance matrix (angstroms):
                    1          2          3          4          5
     1  C    0.000000
     2  C    1.343870   0.000000
     3  H    1.089757   2.131439   0.000000
     4  H    1.089757   2.131439   1.849562   0.000000
     5  H    2.131439   1.089757   2.496866   3.107285   0.000000
     6  H    2.131439   1.089757   3.107284   2.496865   1.849562
                    6
     6  H    0.000000
 Stoichiometry    C2H4
 Framework group  C1[X(C2H4)]
 Deg. of freedom    12
 Full point group                 C1      NOp   1
 Largest Abelian subgroup         C1      NOp   1
 Largest concise Abelian subgroup C1      NOp   1
                         Standard orientation:                         
 ---------------------------------------------------------------------
 Center     Atomic      Atomic             Coordinates (Angstroms)
 Number     Number       Type             X           Y           Z
 ---------------------------------------------------------------------
      1          6           0        0.671935    0.000000    0.000000
      2          6           0       -0.671935    0.000000    0.000000
      3          1           0        1.248433   -0.924781    0.000000
      4          1           0        1.248432    0.924781    0.000000
      5          1           0       -1.248433   -0.924781    0.000000
      6          1           0       -1.248433    0.924781    0.000000
 ---------------------------------------------------------------------
 Rotational constants (GHZ):    146.5865994     29.5214541     24.5726955
 Standard basis: 3-21G (6D, 7F)
 There are    26 symmetry adapted cartesian basis functions of A   symmetry.
 There are    26 symmetry adapted basis functions of A   symmetry.
    26 basis functions,    42 primitive gaussians,    26 cartesian basis functions
     8 alpha electrons        8 beta electrons
       nuclear repulsion energy        33.1252013973 Hartrees.
 NAtoms=    6 NActive=    6 NUniq=    6 SFac= 1.00D+00 NAtFMM=   60 NAOKFM=F Big=F
 Integral buffers will be    131072 words long.
 Raffenetti 1 integral format.
 Two-electron integral symmetry is turned on.
 One-electron integrals computed using PRISM.
 NBasis=    26 RedAO= T EigKep=  1.69D-02  NBF=    26
 NBsUse=    26 1.00D-06 EigRej= -1.00D+00 NBFU=    26
 Initial guess from the checkpoint file:  "/scr/Gau-317.chk"
 B after Tr=     0.000000    0.000000    0.000000
         Rot=    1.000000    0.000000    0.000000    0.000000 Ang=   0.00 deg.
 Keep R1 ints in memory in canonical form, NReq=889329.
 Requested convergence on RMS density matrix=1.00D-08 within 128 cycles.
 Requested convergence on MAX density matrix=1.00D-06.
 Requested convergence on             energy=1.00D-06.
 No special actions if energy rises.
 SCF Done:  E(RHF) =  -77.5991634959     A.U. after    7 cycles
            NFock=  7  Conv=0.18D-08     -V/T= 2.0047
 ExpMin= 1.83D-01 ExpMax= 1.72D+02 ExpMxC= 1.72D+02 IAcc=3 IRadAn=         5 AccDes= 0.00D+00
 HarFok:  IExCor=  205 AccDes= 0.00D+00 IRadAn=         5 IDoV=-2 UseB2=F ITyADJ=14
 ICtDFT= 12500011 ScaDFX=  1.000000  1.000000  1.000000  1.000000
 Range of M.O.s used for correlation:     3    26
 NBasis=    26 NAE=     8 NBE=     8 NFC=     2 NFV=     0
 NROrb=     24 NOA=     6 NOB=     6 NVA=    18 NVB=    18
 Semi-Direct transformation.
 ModeAB=           2 MOrb=             6 LenV=      33437287
 LASXX=        32223 LTotXX=       32223 LenRXX=       32223
 LTotAB=       36432 MaxLAS=       50544 LenRXY=       50544
 NonZer=       64446 LenScr=      785920 LnRSAI=           0
 LnScr1=           0 LExtra=           0 Total=       868687
 MaxDsk=          -1 SrtSym=           F ITran=            4
 JobTyp=0 Pass  1:  I=   1 to   6.
 (rs|ai) integrals will be sorted in core.
 SymMOI:  orbitals are not symmetric.
 Spin components of T(2) and E(2):
     alpha-alpha T2 =       0.7192974282D-02 E2=     -0.1847200660D-01
     alpha-beta  T2 =       0.5981814459D-01 E2=     -0.1451500147D+00
     beta-beta   T2 =       0.7192974282D-02 E2=     -0.1847200660D-01
 ANorm=    0.1036438176D+01
 E2 =    -0.1820940279D+00 EUMP2 =    -0.77781257523772D+02
 Keep R2 and R3 ints in memory in canonical form, NReq=924796.
 Iterations=  50 Convergence= 0.100D-07
 Iteration Nr.   1
 **********************
 DD1Dir will call FoFMem   1 times, MxPair=        42
 NAB=    21 NAA=     0 NBB=     0.
 MP4(R+Q)=  0.17439517D-02
 E3=       -0.16833691D-01        EUMP3=      -0.77798091215D+02
 E4(DQ)=   -0.53589242D-02        UMP4(DQ)=   -0.77803450139D+02
 E4(SDQ)=  -0.70105388D-02        UMP4(SDQ)=  -0.77805101754D+02
 DE(Corr)= -0.19709015     E(Corr)=     -77.796253647    
 NORM(A)=   0.10462402D+01
 Iteration Nr.   2
 **********************
 DD1Dir will call FoFMem   1 times, MxPair=        42
 NAB=    21 NAA=     0 NBB=     0.
 DE(Corr)= -0.20485490     E(CORR)=     -77.804018395     Delta=-7.76D-03
 NORM(A)=   0.10535778D+01
 Iteration Nr.   3
 **********************
 DD1Dir will call FoFMem   1 times, MxPair=        42
 NAB=    21 NAA=     0 NBB=     0.
 DE(Corr)= -0.20789536     E(CORR)=     -77.807058859     Delta=-3.04D-03
 NORM(A)=   0.10557021D+01
 Iteration Nr.   4
 **********************
 DD1Dir will call FoFMem   1 times, MxPair=        42
 NAB=    21 NAA=     0 NBB=     0.
 DE(Corr)= -0.20884025     E(CORR)=     -77.808003747     Delta=-9.45D-04
 NORM(A)=   0.10561728D+01
 Iteration Nr.   5
 **********************
 DD1Dir will call FoFMem   1 times, MxPair=        42
 NAB=    21 NAA=     0 NBB=     0.
 DE(Corr)= -0.20894454     E(CORR)=     -77.808108035     Delta=-1.04D-04
 NORM(A)=   0.10562002D+01
 Iteration Nr.   6
 **********************
 DD1Dir will call FoFMem   1 times, MxPair=        42
 NAB=    21 NAA=     0 NBB=     0.
 DE(Corr)= -0.20894526     E(CORR)=     -77.808108753     Delta=-7.18D-07
 NORM(A)=   0.10562007D+01
 Iteration Nr.   7
 **********************
 DD1Dir will call FoFMem   1 times, MxPair=        42
 NAB=    21 NAA=     0 NBB=     0.
 DE(Corr)= -0.20894472     E(CORR)=     -77.808108214     Delta= 5.39D-07
 NORM(A)=   0.10562024D+01
 Iteration Nr.   8
 **********************
 DD1Dir will call FoFMem   1 times, MxPair=        42
 NAB=    21 NAA=     0 NBB=     0.
 DE(Corr)= -0.20894501     E(CORR)=     -77.808108501     Delta=-2.87D-07
 NORM(A)=   0.10562022D+01
 Iteration Nr.   9
 **********************
 DD1Dir will call FoFMem   1 times, MxPair=        42
 NAB=    21 NAA=     0 NBB=     0.
 DE(Corr)= -0.20894501     E(CORR)=     -77.808108504     Delta=-2.79D-09
 NORM(A)=   0.10562022D+01
 Iteration Nr.  10
 **********************
 DD1Dir will call FoFMem   1 times, MxPair=        42
 NAB=    21 NAA=     0 NBB=     0.
 DE(Corr)= -0.20894501     E(CORR)=     -77.808108504     Delta=-5.73D-11
 NORM(A)=   0.10562022D+01
 Iteration Nr.  11
 **********************
 DD1Dir will call FoFMem   1 times, MxPair=        42
 NAB=    21 NAA=     0 NBB=     0.
 DE(Corr)= -0.20894501     E(CORR)=     -77.808108503     Delta= 7.42D-10
 NORM(A)=   0.10562022D+01
 Dominant configurations:
 ***********************
 Spin Case        I    J    A    B          Value
   ABAB           8    8    9    9      -0.171623D+00
 Largest amplitude= 1.72D-01

 Z-AMPLITUDE ITERATIONS

 Iteration Nr.   1
 **********************
 DD1Dir will call FoFMem   1 times, MxPair=        42
 NAB=    21 NAA=     0 NBB=     0.
 DE(Z)  -0.20461897D+00          E(Z)=    -0.77803782466D+02
 NORM(A)=   0.10562025D+01
 Iteration Nr.   2
 **********************
 DD1Dir will call FoFMem   1 times, MxPair=        42
 NAB=    21 NAA=     0 NBB=     0.
 DE(Z)  -0.20461906D+00          E(Z)=    -0.77803782551D+02
 NORM(A)=   0.10561926D+01
 Iteration Nr.   3
 **********************
 DD1Dir will call FoFMem   1 times, MxPair=        42
 NAB=    21 NAA=     0 NBB=     0.
 DE(Z)  -0.20461637D+00          E(Z)=    -0.77803779863D+02
 NORM(A)=   0.10562057D+01
 Iteration Nr.   4
 **********************
 DD1Dir will call FoFMem   1 times, MxPair=        42
 NAB=    21 NAA=     0 NBB=     0.
 DE(Z)  -0.20461992D+00          E(Z)=    -0.77803783418D+02
 NORM(A)=   0.10561894D+01
 Iteration Nr.   5
 **********************
 DD1Dir will call FoFMem   1 times, MxPair=        42
 NAB=    21 NAA=     0 NBB=     0.
 DE(Z)  -0.20461552D+00          E(Z)=    -0.77803779011D+02
 NORM(A)=   0.10526138D+01
 Iteration Nr.   6
 **********************
 DD1Dir will call FoFMem   1 times, MxPair=        42
 NAB=    21 NAA=     0 NBB=     0.
 DE(Z)  -0.20360504D+00          E(Z)=    -0.77802768537D+02
 NORM(A)=   0.10526132D+01
 Iteration Nr.   7
 **********************
 DD1Dir will call FoFMem   1 times, MxPair=        42
 NAB=    21 NAA=     0 NBB=     0.
 DE(Z)  -0.20360520D+00          E(Z)=    -0.77802768691D+02
 NORM(A)=   0.10526130D+01
 Iteration Nr.   8
 **********************
 DD1Dir will call FoFMem   1 times, MxPair=        42
 NAB=    21 NAA=     0 NBB=     0.
 DE(Z)  -0.20360514D+00          E(Z)=    -0.77802768637D+02
 NORM(A)=   0.10526130D+01
 Iteration Nr.   9
 **********************
 DD1Dir will call FoFMem   1 times, MxPair=        42
 NAB=    21 NAA=     0 NBB=     0.
 DE(Z)  -0.20360512D+00          E(Z)=    -0.77802768615D+02
 NORM(A)=   0.10526129D+01
 Iteration Nr.  10
 **********************
 DD1Dir will call FoFMem   1 times, MxPair=        42
 NAB=    21 NAA=     0 NBB=     0.
 DE(Z)  -0.20360512D+00          E(Z)=    -0.77802768611D+02
 NORM(A)=   0.10526129D+01
 Discarding MO integrals.
          IDoAtm=111111
          Differentiating once with respect to electric field.
                with respect to dipole field.
          Differentiating once with respect to nuclear coordinates.
 Keep R1 ints in memory in canonical form, NReq=871298.
          There are     1 degrees of freedom in the 1st order CPHF.  IDoFFX=0 NUNeed=     1.
 LinEq1:  Iter=  0 NonCon=     1 RMS=6.97D-03 Max=7.30D-02 NDo=     1
 AX will form     1 AO Fock derivatives at one time.
 LinEq1:  Iter=  1 NonCon=     1 RMS=2.18D-03 Max=1.31D-02 NDo=     1
 LinEq1:  Iter=  2 NonCon=     1 RMS=2.05D-04 Max=1.60D-03 NDo=     1
 LinEq1:  Iter=  3 NonCon=     1 RMS=1.37D-05 Max=7.16D-05 NDo=     1
 LinEq1:  Iter=  4 NonCon=     1 RMS=7.86D-07 Max=5.08D-06 NDo=     1
 LinEq1:  Iter=  5 NonCon=     1 RMS=4.39D-08 Max=2.07D-07 NDo=     1
 LinEq1:  Iter=  6 NonCon=     1 RMS=2.52D-09 Max=1.43D-08 NDo=     1
 LinEq1:  Iter=  7 NonCon=     1 RMS=2.43D-10 Max=1.16D-09 NDo=     1
 LinEq1:  Iter=  8 NonCon=     0 RMS=2.58D-11 Max=1.74D-10 NDo=     1
 Linear equations converged to 1.000D-10 1.000D-09 after     8 iterations.
 End of Minotr F.D. properties file   721 does not exist.
 End of Minotr F.D. properties file   722 does not exist.
 End of Minotr F.D. properties file   788 does not exist.
 Calling FoFJK, ICntrl=  10002127 FMM=F ISym2X=0 I1Cent= 0 IOpClX= 0 NMat=1 NMatS=1 NMatT=0.
 ***** Axes restored to original set *****
 -------------------------------------------------------------------
 Center     Atomic                   Forces (Hartrees/Bohr)
 Number     Number              X              Y              Z
 -------------------------------------------------------------------
      1        6           0.000520154    0.000143902   -0.000202792
      2        6          -0.000519981   -0.000143913    0.000202628
      3        1          -0.000114698   -0.000006133    0.000012997
      4        1          -0.000083051   -0.000048540    0.000064108
      5        1           0.000082969    0.000048534   -0.000063995
      6        1           0.000114606    0.000006149   -0.000012947
 -------------------------------------------------------------------
 Cartesian Forces:  Max     0.000520154 RMS     0.000199714

 GradGradGradGradGradGradGradGradGradGradGradGradGradGradGradGradGradGrad
 Berny optimization.
 Using GEDIIS/GDIIS optimizer.
 FormGI is forming the generalized inverse of G from B-inverse, IUseBI=4.
 Internal  Forces:  Max     0.000357357 RMS     0.000116049
 Search for a local minimum.
 Step number   3 out of a maximum of   25
 All quantities printed in internal units (Hartrees-Bohrs-Radians)
 Mixed Optimization -- En-DIIS/RFO-DIIS
 Swapping is turned off.
 Update second derivatives using D2CorX and points    1    2    3
 DE= -9.66D-06 DEPred=-8.57D-06 R= 1.13D+00
 TightC=F SS=  1.41D+00  RLast= 5.12D-03 DXNew= 5.0454D-01 1.5351D-02
 Trust test= 1.13D+00 RLast= 5.12D-03 DXMaxT set to 3.00D-01
 The second derivative matrix:
                          R1        R2        R3        R4        R5
           R1           0.59952
           R2           0.00610   0.35154
           R3           0.00611   0.00024   0.35155
           R4           0.00610   0.00024   0.00024   0.35155
           R5           0.00610   0.00024   0.00024   0.00024   0.35154
           A1           0.01202   0.00018   0.00018   0.00018   0.00018
           A2           0.01202   0.00018   0.00018   0.00018   0.00018
           A3          -0.02403  -0.00036  -0.00036  -0.00036  -0.00036
           A4           0.01200   0.00018   0.00018   0.00018   0.00018
           A5           0.01201   0.00018   0.00018   0.00018   0.00018
           A6          -0.02401  -0.00036  -0.00036  -0.00036  -0.00036
           D1           0.00000   0.00000   0.00000   0.00000   0.00000
           D2           0.00001   0.00000   0.00000   0.00000   0.00000
           D3          -0.00001   0.00000   0.00000   0.00000   0.00000
           D4           0.00000   0.00000   0.00000   0.00000   0.00000
                          A1        A2        A3        A4        A5
           A1           0.15981
           A2          -0.00019   0.15981
           A3           0.00038   0.00038   0.15923
           A4          -0.00019  -0.00019   0.00038   0.15981
           A5          -0.00019  -0.00019   0.00038  -0.00019   0.15981
           A6           0.00038   0.00038  -0.00076   0.00038   0.00038
           D1           0.00000   0.00000   0.00000   0.00000   0.00000
           D2           0.00000   0.00000   0.00000   0.00000   0.00000
           D3           0.00000   0.00000   0.00000   0.00000   0.00000
           D4           0.00000   0.00000   0.00000   0.00000   0.00000
                          A6        D1        D2        D3        D4
           A6           0.15924
           D1           0.00000   0.03087
           D2           0.00000   0.00000   0.03087
           D3           0.00000   0.00000   0.00000   0.03087
           D4           0.00000   0.00000   0.00000   0.00000   0.03087
 ITU=  1  1  0
     Eigenvalues ---    0.03087   0.03087   0.03087   0.15383   0.16000
     Eigenvalues ---    0.16000   0.16000   0.35131   0.35131   0.35131
     Eigenvalues ---    0.35166   0.60400
 En-DIIS/RFO-DIIS IScMMF=        0 using points:     3    2
 RFO step:  Lambda=-3.75014531D-07.
 DidBck=F Rises=F RFO-DIIS coefs:    1.11164   -0.11164
 Iteration  1 RMS(Cart)=  0.00044321 RMS(Int)=  0.00000016
 Iteration  2 RMS(Cart)=  0.00000016 RMS(Int)=  0.00000000
 Variable       Old X    -DE/DX   Delta X   Delta X   Delta X     New X
                                 (Linear)    (Quad)   (Total)
    R1        2.53955  -0.00036  -0.00057  -0.00016  -0.00073   2.53882
    R2        2.05934   0.00003  -0.00002   0.00011   0.00009   2.05943
    R3        2.05934   0.00003  -0.00002   0.00011   0.00009   2.05943
    R4        2.05934   0.00003  -0.00002   0.00011   0.00009   2.05943
    R5        2.05934   0.00003  -0.00002   0.00011   0.00009   2.05943
    A1        2.12824   0.00008   0.00000   0.00055   0.00054   2.12878
    A2        2.12824   0.00008   0.00000   0.00055   0.00054   2.12878
    A3        2.02671  -0.00015   0.00001  -0.00110  -0.00109   2.02562
    A4        2.12824   0.00008   0.00000   0.00055   0.00054   2.12878
    A5        2.12824   0.00008   0.00000   0.00055   0.00054   2.12878
    A6        2.02671  -0.00015   0.00001  -0.00110  -0.00109   2.02562
    D1        0.00000   0.00000   0.00000   0.00000   0.00000   0.00000
    D2        3.14159   0.00000   0.00000   0.00000   0.00000  -3.14159
    D3       -3.14159   0.00000   0.00000   0.00000   0.00000   3.14159
    D4        0.00000   0.00000   0.00000   0.00000   0.00000   0.00000
         Item               Value     Threshold  Converged?
 Maximum Force            0.000357     0.000450     YES
 RMS     Force            0.000116     0.000300     YES
 Maximum Displacement     0.000794     0.001800     YES
 RMS     Displacement     0.000443     0.001200     YES
 Predicted change in Energy=-3.871457D-07
 Optimization completed.
    -- Stationary point found.
                           ----------------------------
                           !   Optimized Parameters   !
                           ! (Angstroms and Degrees)  !
 --------------------------                            --------------------------
 ! Name  Definition              Value          Derivative Info.                !
 --------------------------------------------------------------------------------
 ! R1    R(1,2)                  1.3439         -DE/DX =   -0.0004              !
 ! R2    R(1,3)                  1.0898         -DE/DX =    0.0                 !
 ! R3    R(1,4)                  1.0898         -DE/DX =    0.0                 !
 ! R4    R(2,5)                  1.0898         -DE/DX =    0.0                 !
 ! R5    R(2,6)                  1.0898         -DE/DX =    0.0                 !
 ! A1    A(2,1,3)              121.9389         -DE/DX =    0.0001              !
 ! A2    A(2,1,4)              121.9389         -DE/DX =    0.0001              !
 ! A3    A(3,1,4)              116.1222         -DE/DX =   -0.0002              !
 ! A4    A(1,2,5)              121.939          -DE/DX =    0.0001              !
 ! A5    A(1,2,6)              121.9389         -DE/DX =    0.0001              !
 ! A6    A(5,2,6)              116.1221         -DE/DX =   -0.0002              !
 ! D1    D(3,1,2,5)              0.0            -DE/DX =    0.0                 !
 ! D2    D(3,1,2,6)           -180.0            -DE/DX =    0.0                 !
 ! D3    D(4,1,2,5)            180.0001         -DE/DX =    0.0                 !
 ! D4    D(4,1,2,6)              0.0            -DE/DX =    0.0                 !
 --------------------------------------------------------------------------------
 GradGradGradGradGradGradGradGradGradGradGradGradGradGradGradGradGradGrad

                          Input orientation:                          
 ---------------------------------------------------------------------
 Center     Atomic      Atomic             Coordinates (Angstroms)
 Number     Number       Type             X           Y           Z
 ---------------------------------------------------------------------
      1          6           0       -0.754584   -1.174967    1.561233
      2          6           0        0.457787   -0.839333    1.088484
      3          1           0       -0.876622   -1.852076    2.406336
      4          1           0       -1.672720   -0.785822    1.121731
      5          1           0        1.375924   -1.228478    1.527985
      6          1           0        0.579826   -0.162224    0.243381
 ---------------------------------------------------------------------
                    Distance matrix (angstroms):
                    1          2          3          4          5
     1  C    0.000000
     2  C    1.343870   0.000000
     3  H    1.089757   2.131439   0.000000
     4  H    1.089757   2.131439   1.849562   0.000000
     5  H    2.131439   1.089757   2.496866   3.107285   0.000000
     6  H    2.131439   1.089757   3.107284   2.496865   1.849562
                    6
     6  H    0.000000
 Stoichiometry    C2H4
 Framework group  C1[X(C2H4)]
 Deg. of freedom    12
 Full point group                 C1      NOp   1
 Largest Abelian subgroup         C1      NOp   1
 Largest concise Abelian subgroup C1      NOp   1
                         Standard orientation:                         
 ---------------------------------------------------------------------
 Center     Atomic      Atomic             Coordinates (Angstroms)
 Number     Number       Type             X           Y           Z
 ---------------------------------------------------------------------
      1          6           0        0.671935    0.000000    0.000000
      2          6           0       -0.671935    0.000000    0.000000
      3          1           0        1.248433   -0.924781    0.000000
      4          1           0        1.248432    0.924781    0.000000
      5          1           0       -1.248433   -0.924781    0.000000
      6          1           0       -1.248433    0.924781    0.000000
 ---------------------------------------------------------------------
 Rotational constants (GHZ):    146.5865994     29.5214541     24.5726955

 **********************************************************************

            Population analysis using the SCF density.

 **********************************************************************

 Orbital symmetries:
       Occupied  (A) (A) (A) (A) (A) (A) (A) (A)
       Virtual   (A) (A) (A) (A) (A) (A) (A) (A) (A) (A) (A) (A)
                 (A) (A) (A) (A) (A) (A)
 The electronic state is 1-A.
 Alpha  occ. eigenvalues --  -11.17501 -11.17496  -1.02694  -0.78599  -0.63780
 Alpha  occ. eigenvalues --   -0.58398  -0.49839  -0.37355
 Alpha virt. eigenvalues --    0.17908   0.29445   0.30848   0.33452   0.43423
 Alpha virt. eigenvalues --    0.53530   0.89059   0.92697   0.99361   1.07426
 Alpha virt. eigenvalues --    1.09354   1.12488   1.30804   1.34845   1.38662
 Alpha virt. eigenvalues --    1.62868   1.65486   1.95555
          Condensed to atoms (all electrons):
               1          2          3          4          5          6
     1  C    5.204500   0.530500   0.390458   0.390458  -0.046187  -0.046187
     2  C    0.530500   5.204500  -0.046187  -0.046187   0.390458   0.390458
     3  H    0.390458  -0.046187   0.466340  -0.022430  -0.001901   0.001950
     4  H    0.390458  -0.046187  -0.022430   0.466340   0.001950  -0.001901
     5  H   -0.046187   0.390458  -0.001901   0.001950   0.466340  -0.022430
     6  H   -0.046187   0.390458   0.001950  -0.001901  -0.022430   0.466340
 Mulliken charges:
               1
     1  C   -0.423542
     2  C   -0.423542
     3  H    0.211771
     4  H    0.211771
     5  H    0.211771
     6  H    0.211771
 Sum of Mulliken charges =   0.00000
 Mulliken charges with hydrogens summed into heavy atoms:
               1
     1  C    0.000000
     2  C    0.000000
 Electronic spatial extent (au):  <R**2>=             83.7305
 Charge=              0.0000 electrons
 Dipole moment (field-independent basis, Debye):
    X=              0.0000    Y=              0.0000    Z=              0.0000  Tot=              0.0000
 Quadrupole moment (field-independent basis, Debye-Ang):
   XX=            -12.0624   YY=            -12.3608   ZZ=            -15.7976
   XY=              0.0000   XZ=              0.0000   YZ=              0.0000
 Traceless Quadrupole moment (field-independent basis, Debye-Ang):
   XX=              1.3445   YY=              1.0462   ZZ=             -2.3907
   XY=              0.0000   XZ=              0.0000   YZ=              0.0000
 Octapole moment (field-independent basis, Debye-Ang**2):
  XXX=              0.0000  YYY=              0.0000  ZZZ=              0.0000  XYY=              0.0000
  XXY=              0.0000  XXZ=              0.0000  XZZ=              0.0000  YZZ=              0.0000
  YYZ=              0.0000  XYZ=              0.0000
 Hexadecapole moment (field-independent basis, Debye-Ang**3):
 XXXX=            -66.5806 YYYY=            -25.3085 ZZZZ=            -16.5981 XXXY=              0.0000
 XXXZ=              0.0000 YYYX=              0.0000 YYYZ=              0.0000 ZZZX=              0.0000
 ZZZY=              0.0000 XXYY=            -12.4951 XXZZ=            -15.1359 YYZZ=             -7.6492
 XXYZ=              0.0000 YYXZ=              0.0000 ZZXY=              0.0000
 N-N= 3.312520139727D+01 E-N=-2.461753624968D+02  KE= 7.723983584591D+01
 1\1\GINC-N0299\FOpt\RCCSD-FC\3-21G\C2H4\TAIYUPAN\24-Feb-2017\0\\#n CCS
 D/3-21G Opt\\Title\\0,1\C,-0.7545843311,-1.1749670163,1.5612329318\C,0
 .457787359,-0.8393326912,1.0884843353\H,-0.8766221146,-1.8520761122,2.
 4063362268\H,-1.6727202059,-0.7858215198,1.1217313583\H,1.3759237832,-
 1.2284784898,1.5279846156\H,0.5798255069,-0.1622241675,0.2433805283\\V
 ersion=ES64L-G09RevE.01\State=1-A\HF=-77.5991635\MP2=-77.7812575\MP3=-
 77.7980912\MP4D=-77.8051941\MP4DQ=-77.8034501\MP4SDQ=-77.8051018\CCSD=
 -77.8081085\RMSD=1.771e-09\RMSF=1.997e-04\Dipole=0.,-0.0000004,-0.0000
 003\PG=C01 [X(C2H4)]\\@


 YOU CAN WIPE THE SLATE CLEAN, BUT YOU'LL STILL
 HAVE TO EAT A LITTLE CHALK DUST.
 Job cpu time:       0 days  0 hours  1 minutes  1.5 seconds.
 File lengths (MBytes):  RWF=     13 Int=      0 D2E=      0 Chk=      1 Scr=      1
 Normal termination of Gaussian 09 at Fri Feb 24 00:14:05 2017.
