 Entering Gaussian System, Link 0=g09
 Input=CH2_MP2_3G.com
 Output=CH2_MP2_3G.log
 Initial command:
 /sw/contrib/gaussian/g09/E01/g09/l1.exe "/scr/Gau-24693.inp" -scrdir="/scr/"
 Entering Link 1 = /sw/contrib/gaussian/g09/E01/g09/l1.exe PID=     24694.
  
 Copyright (c) 1988,1990,1992,1993,1995,1998,2003,2009,2015,
            Gaussian, Inc.  All Rights Reserved.
  
 This is part of the Gaussian(R) 09 program.  It is based on
 the Gaussian(R) 03 system (copyright 2003, Gaussian, Inc.),
 the Gaussian(R) 98 system (copyright 1998, Gaussian, Inc.),
 the Gaussian(R) 94 system (copyright 1995, Gaussian, Inc.),
 the Gaussian 92(TM) system (copyright 1992, Gaussian, Inc.),
 the Gaussian 90(TM) system (copyright 1990, Gaussian, Inc.),
 the Gaussian 88(TM) system (copyright 1988, Gaussian, Inc.),
 the Gaussian 86(TM) system (copyright 1986, Carnegie Mellon
 University), and the Gaussian 82(TM) system (copyright 1983,
 Carnegie Mellon University). Gaussian is a federally registered
 trademark of Gaussian, Inc.
  
 This software contains proprietary and confidential information,
 including trade secrets, belonging to Gaussian, Inc.
  
 This software is provided under written license and may be
 used, copied, transmitted, or stored only in accord with that
 written license.
  
 The following legend is applicable only to US Government
 contracts under FAR:
  
                    RESTRICTED RIGHTS LEGEND
  
 Use, reproduction and disclosure by the US Government is
 subject to restrictions as set forth in subparagraphs (a)
 and (c) of the Commercial Computer Software - Restricted
 Rights clause in FAR 52.227-19.
  
 Gaussian, Inc.
 340 Quinnipiac St., Bldg. 40, Wallingford CT 06492
  
  
 ---------------------------------------------------------------
 Warning -- This program may not be used in any manner that
 competes with the business of Gaussian, Inc. or will provide
 assistance to any competitor of Gaussian, Inc.  The licensee
 of this program is prohibited from giving any competitor of
 Gaussian, Inc. access to this program.  By using this program,
 the user acknowledges that Gaussian, Inc. is engaged in the
 business of creating and licensing software in the field of
 computational chemistry and represents and warrants to the
 licensee that it is not a competitor of Gaussian, Inc. and that
 it will not use this program in any manner prohibited above.
 ---------------------------------------------------------------
  

 Cite this work as:
 Gaussian 09, Revision E.01,
 M. J. Frisch, G. W. Trucks, H. B. Schlegel, G. E. Scuseria, 
 M. A. Robb, J. R. Cheeseman, G. Scalmani, V. Barone, B. Mennucci, 
 G. A. Petersson, H. Nakatsuji, M. Caricato, X. Li, H. P. Hratchian, 
 A. F. Izmaylov, J. Bloino, G. Zheng, J. L. Sonnenberg, M. Hada, 
 M. Ehara, K. Toyota, R. Fukuda, J. Hasegawa, M. Ishida, T. Nakajima, 
 Y. Honda, O. Kitao, H. Nakai, T. Vreven, J. A. Montgomery, Jr., 
 J. E. Peralta, F. Ogliaro, M. Bearpark, J. J. Heyd, E. Brothers, 
 K. N. Kudin, V. N. Staroverov, T. Keith, R. Kobayashi, J. Normand, 
 K. Raghavachari, A. Rendell, J. C. Burant, S. S. Iyengar, J. Tomasi, 
 M. Cossi, N. Rega, J. M. Millam, M. Klene, J. E. Knox, J. B. Cross, 
 V. Bakken, C. Adamo, J. Jaramillo, R. Gomperts, R. E. Stratmann, 
 O. Yazyev, A. J. Austin, R. Cammi, C. Pomelli, J. W. Ochterski, 
 R. L. Martin, K. Morokuma, V. G. Zakrzewski, G. A. Voth, 
 P. Salvador, J. J. Dannenberg, S. Dapprich, A. D. Daniels, 
 O. Farkas, J. B. Foresman, J. V. Ortiz, J. Cioslowski, 
 and D. J. Fox, Gaussian, Inc., Wallingford CT, 2013.
 
 ******************************************
 Gaussian 09:  ES64L-G09RevE.01 30-Nov-2015
                24-Feb-2017 
 ******************************************
 %NProcShared=8
 Will use up to    8 processors via shared memory.
 ----------------
 #n MP2/3-21G Opt
 ----------------
 1/18=20,19=15,38=1/1,3;
 2/9=110,12=2,17=6,18=5,40=1/2;
 3/5=5,11=9,16=1,25=1,30=1,71=1/1,2,3;
 4//1;
 5/5=2,38=5/2;
 8/6=4,10=1/1;
 9/15=2,16=-3/6;
 10/5=1/2;
 6/7=2,8=2,9=2,10=2/1;
 7/12=2/1,2,3,16;
 1/18=20,19=15/3(2);
 2/9=110/2;
 99//99;
 2/9=110/2;
 3/5=5,11=9,16=1,25=1,30=1,71=1/1,2,3;
 4/5=5,16=3,69=1/1;
 5/5=2,38=5/2;
 8/6=4,10=1/1;
 9/15=2,16=-3/6;
 10/5=1/2;
 7/12=2/1,2,3,16;
 1/18=20,19=15/3(-8);
 2/9=110/2;
 6/7=2,8=2,9=2,10=2/1;
 99//99;
 -----
 Title
 -----
 Symbolic Z-matrix:
 Charge =  0 Multiplicity = 1
 C                    -0.74586  -1.17255   1.55783 
 C                     0.44906  -0.84175   1.09189 
 H                    -0.85261  -1.84945   2.40196 
 H                    -1.65368  -0.77653   1.10932 
 H                     1.35689  -1.23777   1.54039 
 H                     0.55581  -0.16485   0.24776 
 

 GradGradGradGradGradGradGradGradGradGradGradGradGradGradGradGradGradGrad
 Berny optimization.
 Initialization pass.
                           ----------------------------
                           !    Initial Parameters    !
                           ! (Angstroms and Degrees)  !
 --------------------------                            --------------------------
 ! Name  Definition              Value          Derivative Info.                !
 --------------------------------------------------------------------------------
 ! R1    R(1,2)                  1.3245         estimate D2E/DX2                !
 ! R2    R(1,3)                  1.0873         estimate D2E/DX2                !
 ! R3    R(1,4)                  1.0873         estimate D2E/DX2                !
 ! R4    R(2,5)                  1.0873         estimate D2E/DX2                !
 ! R5    R(2,6)                  1.0873         estimate D2E/DX2                !
 ! A1    A(2,1,3)              121.1431         estimate D2E/DX2                !
 ! A2    A(2,1,4)              121.1433         estimate D2E/DX2                !
 ! A3    A(3,1,4)              117.7137         estimate D2E/DX2                !
 ! A4    A(1,2,5)              121.1439         estimate D2E/DX2                !
 ! A5    A(1,2,6)              121.1431         estimate D2E/DX2                !
 ! A6    A(5,2,6)              117.713          estimate D2E/DX2                !
 ! D1    D(3,1,2,5)              0.0002         estimate D2E/DX2                !
 ! D2    D(3,1,2,6)            180.0            estimate D2E/DX2                !
 ! D3    D(4,1,2,5)           -179.9996         estimate D2E/DX2                !
 ! D4    D(4,1,2,6)              0.0002         estimate D2E/DX2                !
 --------------------------------------------------------------------------------
 Trust Radius=3.00D-01 FncErr=1.00D-07 GrdErr=1.00D-07
 Number of steps in this run=     25 maximum allowed number of steps=    100.
 GradGradGradGradGradGradGradGradGradGradGradGradGradGradGradGradGradGrad

                          Input orientation:                          
 ---------------------------------------------------------------------
 Center     Atomic      Atomic             Coordinates (Angstroms)
 Number     Number       Type             X           Y           Z
 ---------------------------------------------------------------------
      1          6           0       -0.745860   -1.172550    1.557830
      2          6           0        0.449060   -0.841750    1.091890
      3          1           0       -0.852610   -1.849450    2.401960
      4          1           0       -1.653680   -0.776530    1.109320
      5          1           0        1.356890   -1.237770    1.540390
      6          1           0        0.555810   -0.164850    0.247760
 ---------------------------------------------------------------------
                    Distance matrix (angstroms):
                    1          2          3          4          5
     1  C    0.000000
     2  C    1.324524   0.000000
     3  H    1.087265   2.103827   0.000000
     4  H    1.087258   2.103823   1.861126   0.000000
     5  H    2.103833   1.087262   2.449152   3.076052   0.000000
     6  H    2.103827   1.087265   3.076053   2.449139   1.861123
                    6
     6  H    0.000000
 Stoichiometry    C2H4
 Framework group  C1[X(C2H4)]
 Deg. of freedom    12
 Full point group                 C1      NOp   1
 Largest Abelian subgroup         C1      NOp   1
 Largest concise Abelian subgroup C1      NOp   1
                         Standard orientation:                         
 ---------------------------------------------------------------------
 Center     Atomic      Atomic             Coordinates (Angstroms)
 Number     Number       Type             X           Y           Z
 ---------------------------------------------------------------------
      1          6           0        0.662263    0.000001    0.000000
      2          6           0       -0.662261   -0.000001    0.000000
      3          1           0        1.224572   -0.930565    0.000000
      4          1           0        1.224569    0.930560    0.000003
      5          1           0       -1.224580   -0.930558    0.000003
      6          1           0       -1.224570    0.930565    0.000000
 ---------------------------------------------------------------------
 Rotational constants (GHZ):    144.7709037     30.4970117     25.1904631
 Standard basis: 3-21G (6D, 7F)
 There are    26 symmetry adapted cartesian basis functions of A   symmetry.
 There are    26 symmetry adapted basis functions of A   symmetry.
    26 basis functions,    42 primitive gaussians,    26 cartesian basis functions
     8 alpha electrons        8 beta electrons
       nuclear repulsion energy        33.4453569118 Hartrees.
 NAtoms=    6 NActive=    6 NUniq=    6 SFac= 1.00D+00 NAtFMM=   60 NAOKFM=F Big=F
 Integral buffers will be    131072 words long.
 Raffenetti 1 integral format.
 Two-electron integral symmetry is turned on.
 One-electron integrals computed using PRISM.
 NBasis=    26 RedAO= T EigKep=  1.56D-02  NBF=    26
 NBsUse=    26 1.00D-06 EigRej= -1.00D+00 NBFU=    26
 ExpMin= 1.83D-01 ExpMax= 1.72D+02 ExpMxC= 1.72D+02 IAcc=1 IRadAn=         1 AccDes= 0.00D+00
 Harris functional with IExCor=  205 and IRadAn=       1 diagonalized for initial guess.
 HarFok:  IExCor=  205 AccDes= 0.00D+00 IRadAn=         1 IDoV= 1 UseB2=F ITyADJ=14
 ICtDFT=  3500011 ScaDFX=  1.000000  1.000000  1.000000  1.000000
 FoFCou: FMM=F IPFlag=           0 FMFlag=      100000 FMFlg1=           0
         NFxFlg=           0 DoJE=T BraDBF=F KetDBF=T FulRan=T
         wScrn=  0.000000 ICntrl=     500 IOpCl=  0 I1Cent=   200000004 NGrid=           0
         NMat0=    1 NMatS0=      1 NMatT0=    0 NMatD0=    1 NMtDS0=    0 NMtDT0=    0
 Petite list used in FoFCou.
 Keep R1 ints in memory in canonical form, NReq=889329.
 Requested convergence on RMS density matrix=1.00D-08 within 128 cycles.
 Requested convergence on MAX density matrix=1.00D-06.
 Requested convergence on             energy=1.00D-06.
 No special actions if energy rises.
 SCF Done:  E(RHF) =  -77.6002108170     A.U. after    8 cycles
            NFock=  8  Conv=0.85D-08     -V/T= 2.0036
 ExpMin= 1.83D-01 ExpMax= 1.72D+02 ExpMxC= 1.72D+02 IAcc=3 IRadAn=         5 AccDes= 0.00D+00
 HarFok:  IExCor=  205 AccDes= 0.00D+00 IRadAn=         5 IDoV=-2 UseB2=F ITyADJ=14
 ICtDFT= 12500011 ScaDFX=  1.000000  1.000000  1.000000  1.000000
 Range of M.O.s used for correlation:     3    26
 NBasis=    26 NAE=     8 NBE=     8 NFC=     2 NFV=     0
 NROrb=     24 NOA=     6 NOB=     6 NVA=    18 NVB=    18
 Fully direct method using O(ONN) memory.
 JobTyp=1 Pass  1:  I=   3 to   8 NPSUse=  3 ParTrn=F ParDer=T DoDerP=T.
 Spin components of T(2) and E(2):
     alpha-alpha T2 =       0.7060146687D-02 E2=     -0.1833104285D-01
     alpha-beta  T2 =       0.5859117338D-01 E2=     -0.1439411296D+00
     beta-beta   T2 =       0.7060146687D-02 E2=     -0.1833104285D-01
 ANorm=    0.1035717851D+01
 E2 =    -0.1806032153D+00 EUMP2 =    -0.77780814032299D+02
          IDoAtm=111111
          Differentiating once with respect to electric field.
                with respect to dipole field.
          Differentiating once with respect to nuclear coordinates.
 Keep R1 ints in memory in canonical form, NReq=871298.
          There are     1 degrees of freedom in the 1st order CPHF.  IDoFFX=0 NUNeed=     1.
 LinEq1:  Iter=  0 NonCon=     1 RMS=7.39D-03 Max=7.46D-02 NDo=     1
 AX will form     1 AO Fock derivatives at one time.
 LinEq1:  Iter=  1 NonCon=     1 RMS=2.33D-03 Max=1.49D-02 NDo=     1
 LinEq1:  Iter=  2 NonCon=     1 RMS=2.01D-04 Max=1.43D-03 NDo=     1
 LinEq1:  Iter=  3 NonCon=     1 RMS=1.29D-05 Max=8.41D-05 NDo=     1
 LinEq1:  Iter=  4 NonCon=     1 RMS=8.60D-07 Max=5.16D-06 NDo=     1
 LinEq1:  Iter=  5 NonCon=     1 RMS=4.77D-08 Max=2.33D-07 NDo=     1
 LinEq1:  Iter=  6 NonCon=     1 RMS=3.12D-09 Max=1.40D-08 NDo=     1
 LinEq1:  Iter=  7 NonCon=     1 RMS=7.14D-10 Max=5.54D-09 NDo=     1
 LinEq1:  Iter=  8 NonCon=     1 RMS=2.22D-10 Max=1.20D-09 NDo=     1
 LinEq1:  Iter=  9 NonCon=     0 RMS=1.74D-11 Max=7.45D-11 NDo=     1
 Linear equations converged to 1.000D-10 1.000D-09 after     9 iterations.
 End of Minotr F.D. properties file   721 does not exist.
 End of Minotr F.D. properties file   722 does not exist.
 End of Minotr F.D. properties file   788 does not exist.

 **********************************************************************

            Population analysis using the SCF density.

 **********************************************************************

 Orbital symmetries:
       Occupied  (A) (A) (A) (A) (A) (A) (A) (A)
       Virtual   (A) (A) (A) (A) (A) (A) (A) (A) (A) (A) (A) (A)
                 (A) (A) (A) (A) (A) (A)
 The electronic state is 1-A.
 Alpha  occ. eigenvalues --  -11.17061 -11.17050  -1.03430  -0.78227  -0.64411
 Alpha  occ. eigenvalues --   -0.58344  -0.49812  -0.37778
 Alpha virt. eigenvalues --    0.18438   0.29272   0.30948   0.33870   0.43621
 Alpha virt. eigenvalues --    0.53945   0.87438   0.93805   0.99114   1.07790
 Alpha virt. eigenvalues --    1.11103   1.12082   1.31434   1.34613   1.39350
 Alpha virt. eigenvalues --    1.65396   1.66055   1.97153
          Condensed to atoms (all electrons):
               1          2          3          4          5          6
     1  C    5.212305   0.523628   0.393287   0.393288  -0.049457  -0.049458
     2  C    0.523628   5.212305  -0.049458  -0.049458   0.393287   0.393287
     3  H    0.393287  -0.049458   0.464725  -0.020367  -0.002130   0.002145
     4  H    0.393288  -0.049458  -0.020367   0.464723   0.002145  -0.002130
     5  H   -0.049457   0.393287  -0.002130   0.002145   0.464724  -0.020367
     6  H   -0.049458   0.393287   0.002145  -0.002130  -0.020367   0.464727
 Mulliken charges:
               1
     1  C   -0.423594
     2  C   -0.423592
     3  H    0.211796
     4  H    0.211798
     5  H    0.211797
     6  H    0.211795
 Sum of Mulliken charges =   0.00000
 Mulliken charges with hydrogens summed into heavy atoms:
               1
     1  C    0.000000
     2  C    0.000000
 Electronic spatial extent (au):  <R**2>=             82.4750
 Charge=              0.0000 electrons
 Dipole moment (field-independent basis, Debye):
    X=              0.0000    Y=              0.0000    Z=              0.0000  Tot=              0.0000
 Quadrupole moment (field-independent basis, Debye-Ang):
   XX=            -12.2274   YY=            -12.2489   ZZ=            -15.7273
   XY=              0.0000   XZ=              0.0000   YZ=              0.0000
 Traceless Quadrupole moment (field-independent basis, Debye-Ang):
   XX=              1.1738   YY=              1.1523   ZZ=             -2.3261
   XY=              0.0000   XZ=              0.0000   YZ=              0.0000
 Octapole moment (field-independent basis, Debye-Ang**2):
  XXX=              0.0000  YYY=              0.0000  ZZZ=              0.0000  XYY=              0.0000
  XXY=              0.0000  XXZ=              0.0000  XZZ=              0.0000  YZZ=              0.0000
  YYZ=              0.0000  XYZ=              0.0000
 Hexadecapole moment (field-independent basis, Debye-Ang**3):
 XXXX=            -65.3440 YYYY=            -25.2067 ZZZZ=            -16.4761 XXXY=              0.0001
 XXXZ=              0.0000 YYYX=              0.0000 YYYZ=              0.0000 ZZZX=              0.0000
 ZZZY=              0.0000 XXYY=            -12.3247 XXZZ=            -14.7768 YYZZ=             -7.6339
 XXYZ=              0.0000 YYXZ=              0.0000 ZZXY=              0.0000
 N-N= 3.344535691183D+01 E-N=-2.468881635824D+02  KE= 7.731930305396D+01
 Calling FoFJK, ICntrl=  10002127 FMM=F ISym2X=0 I1Cent= 0 IOpClX= 0 NMat=1 NMatS=1 NMatT=0.
 ***** Axes restored to original set *****
 -------------------------------------------------------------------
 Center     Atomic                   Forces (Hartrees/Bohr)
 Number     Number              X              Y              Z
 -------------------------------------------------------------------
      1        6          -0.016277692   -0.004509823    0.006351273
      2        6           0.016281359    0.004508982   -0.006350999
      3        1          -0.002886397    0.000975433   -0.001074364
      4        1          -0.000693955   -0.001963802    0.002467295
      5        1           0.000690804    0.001964541   -0.002467342
      6        1           0.002885881   -0.000975331    0.001074137
 -------------------------------------------------------------------
 Cartesian Forces:  Max     0.016281359 RMS     0.006205327

 GradGradGradGradGradGradGradGradGradGradGradGradGradGradGradGradGradGrad
 Berny optimization.
 FormGI is forming the generalized inverse of G from B-inverse, IUseBI=4.
 Internal  Forces:  Max     0.022012376 RMS     0.006005963
 Search for a local minimum.
 Step number   1 out of a maximum of   25
 All quantities printed in internal units (Hartrees-Bohrs-Radians)
 Mixed Optimization -- RFO/linear search
 Second derivative matrix not updated -- first step.
 The second derivative matrix:
                          R1        R2        R3        R4        R5
           R1           0.60818
           R2           0.00000   0.35131
           R3           0.00000   0.00000   0.35131
           R4           0.00000   0.00000   0.00000   0.35131
           R5           0.00000   0.00000   0.00000   0.00000   0.35131
           A1           0.00000   0.00000   0.00000   0.00000   0.00000
           A2           0.00000   0.00000   0.00000   0.00000   0.00000
           A3           0.00000   0.00000   0.00000   0.00000   0.00000
           A4           0.00000   0.00000   0.00000   0.00000   0.00000
           A5           0.00000   0.00000   0.00000   0.00000   0.00000
           A6           0.00000   0.00000   0.00000   0.00000   0.00000
           D1           0.00000   0.00000   0.00000   0.00000   0.00000
           D2           0.00000   0.00000   0.00000   0.00000   0.00000
           D3           0.00000   0.00000   0.00000   0.00000   0.00000
           D4           0.00000   0.00000   0.00000   0.00000   0.00000
                          A1        A2        A3        A4        A5
           A1           0.16000
           A2           0.00000   0.16000
           A3           0.00000   0.00000   0.16000
           A4           0.00000   0.00000   0.00000   0.16000
           A5           0.00000   0.00000   0.00000   0.00000   0.16000
           A6           0.00000   0.00000   0.00000   0.00000   0.00000
           D1           0.00000   0.00000   0.00000   0.00000   0.00000
           D2           0.00000   0.00000   0.00000   0.00000   0.00000
           D3           0.00000   0.00000   0.00000   0.00000   0.00000
           D4           0.00000   0.00000   0.00000   0.00000   0.00000
                          A6        D1        D2        D3        D4
           A6           0.16000
           D1           0.00000   0.03087
           D2           0.00000   0.00000   0.03087
           D3           0.00000   0.00000   0.00000   0.03087
           D4           0.00000   0.00000   0.00000   0.00000   0.03087
 ITU=  0
     Eigenvalues ---    0.03087   0.03087   0.03087   0.16000   0.16000
     Eigenvalues ---    0.16000   0.16000   0.35131   0.35131   0.35131
     Eigenvalues ---    0.35131   0.60818
 RFO step:  Lambda=-1.12804735D-03 EMin= 3.08716499D-02
 Linear search not attempted -- first point.
 Iteration  1 RMS(Cart)=  0.02277727 RMS(Int)=  0.00008894
 Iteration  2 RMS(Cart)=  0.00008760 RMS(Int)=  0.00000000
 Iteration  3 RMS(Cart)=  0.00000000 RMS(Int)=  0.00000000
 Variable       Old X    -DE/DX   Delta X   Delta X   Delta X     New X
                                 (Linear)    (Quad)   (Total)
    R1        2.50299   0.02201   0.00000   0.03613   0.03613   2.53911
    R2        2.05463  -0.00116   0.00000  -0.00329  -0.00329   2.05135
    R3        2.05462  -0.00115   0.00000  -0.00327  -0.00327   2.05135
    R4        2.05463  -0.00116   0.00000  -0.00328  -0.00328   2.05135
    R5        2.05463  -0.00116   0.00000  -0.00329  -0.00329   2.05135
    A1        2.11435   0.00207   0.00000   0.01282   0.01282   2.12717
    A2        2.11435   0.00207   0.00000   0.01282   0.01282   2.12717
    A3        2.05449  -0.00413   0.00000  -0.02564  -0.02564   2.02885
    A4        2.11436   0.00206   0.00000   0.01281   0.01281   2.12717
    A5        2.11435   0.00207   0.00000   0.01282   0.01282   2.12717
    A6        2.05448  -0.00413   0.00000  -0.02563  -0.02563   2.02885
    D1        0.00000   0.00000   0.00000   0.00000   0.00000   0.00000
    D2        3.14159   0.00000   0.00000   0.00000   0.00000  -3.14159
    D3       -3.14159   0.00000   0.00000  -0.00001  -0.00001   3.14159
    D4        0.00000   0.00000   0.00000   0.00000   0.00000   0.00000
         Item               Value     Threshold  Converged?
 Maximum Force            0.022012     0.000450     NO 
 RMS     Force            0.006006     0.000300     NO 
 Maximum Displacement     0.042114     0.001800     NO 
 RMS     Displacement     0.022751     0.001200     NO 
 Predicted change in Energy=-5.658959D-04
 GradGradGradGradGradGradGradGradGradGradGradGradGradGradGradGradGradGrad

                          Input orientation:                          
 ---------------------------------------------------------------------
 Center     Atomic      Atomic             Coordinates (Angstroms)
 Number     Number       Type             X           Y           Z
 ---------------------------------------------------------------------
      1          6           0       -0.754481   -1.174939    1.561192
      2          6           0        0.457684   -0.839362    1.088524
      3          1           0       -0.874892   -1.849526    2.403095
      4          1           0       -1.668428   -0.786703    1.122625
      5          1           0        1.371632   -1.227595    1.527091
      6          1           0        0.578096   -0.164774    0.246623
 ---------------------------------------------------------------------
                    Distance matrix (angstroms):
                    1          2          3          4          5
     1  C    0.000000
     2  C    1.343641   0.000000
     3  H    1.085526   2.127037   0.000000
     4  H    1.085526   2.127037   1.843609   0.000000
     5  H    2.127038   1.085526   2.490191   3.098377   0.000000
     6  H    2.127038   1.085526   3.098377   2.490190   1.843608
                    6
     6  H    0.000000
 Stoichiometry    C2H4
 Framework group  C1[X(C2H4)]
 Deg. of freedom    12
 Full point group                 C1      NOp   1
 Largest Abelian subgroup         C1      NOp   1
 Largest concise Abelian subgroup C1      NOp   1
                         Standard orientation:                         
 ---------------------------------------------------------------------
 Center     Atomic      Atomic             Coordinates (Angstroms)
 Number     Number       Type             X           Y           Z
 ---------------------------------------------------------------------
      1          6           0        0.671821    0.000000    0.000000
      2          6           0       -0.671820    0.000000    0.000000
      3          1           0        1.245094   -0.921805   -0.000001
      4          1           0        1.245095    0.921805   -0.000001
      5          1           0       -1.245096   -0.921803   -0.000001
      6          1           0       -1.245095    0.921804   -0.000001
 ---------------------------------------------------------------------
 Rotational constants (GHZ):    147.5348635     29.5858226     24.6438764
 Standard basis: 3-21G (6D, 7F)
 There are    26 symmetry adapted cartesian basis functions of A   symmetry.
 There are    26 symmetry adapted basis functions of A   symmetry.
    26 basis functions,    42 primitive gaussians,    26 cartesian basis functions
     8 alpha electrons        8 beta electrons
       nuclear repulsion energy        33.1893316312 Hartrees.
 NAtoms=    6 NActive=    6 NUniq=    6 SFac= 1.00D+00 NAtFMM=   60 NAOKFM=F Big=F
 Integral buffers will be    131072 words long.
 Raffenetti 1 integral format.
 Two-electron integral symmetry is turned on.
 One-electron integrals computed using PRISM.
 NBasis=    26 RedAO= T EigKep=  1.68D-02  NBF=    26
 NBsUse=    26 1.00D-06 EigRej= -1.00D+00 NBFU=    26
 Initial guess from the checkpoint file:  "/scr/Gau-24694.chk"
 B after Tr=     0.000000    0.000000    0.000000
         Rot=    1.000000    0.000000    0.000000    0.000000 Ang=   0.00 deg.
 ExpMin= 1.83D-01 ExpMax= 1.72D+02 ExpMxC= 1.72D+02 IAcc=1 IRadAn=         1 AccDes= 0.00D+00
 Harris functional with IExCor=  205 and IRadAn=       1 diagonalized for initial guess.
 HarFok:  IExCor=  205 AccDes= 0.00D+00 IRadAn=         1 IDoV= 1 UseB2=F ITyADJ=14
 ICtDFT=  3500011 ScaDFX=  1.000000  1.000000  1.000000  1.000000
 FoFCou: FMM=F IPFlag=           0 FMFlag=      100000 FMFlg1=           0
         NFxFlg=           0 DoJE=T BraDBF=F KetDBF=T FulRan=T
         wScrn=  0.000000 ICntrl=     500 IOpCl=  0 I1Cent=   200000004 NGrid=           0
         NMat0=    1 NMatS0=      1 NMatT0=    0 NMatD0=    1 NMtDS0=    0 NMtDT0=    0
 Petite list used in FoFCou.
 Keep R1 ints in memory in canonical form, NReq=889329.
 Requested convergence on RMS density matrix=1.00D-08 within 128 cycles.
 Requested convergence on MAX density matrix=1.00D-06.
 Requested convergence on             energy=1.00D-06.
 No special actions if energy rises.
 SCF Done:  E(RHF) =  -77.5995245623     A.U. after    8 cycles
            NFock=  8  Conv=0.14D-08     -V/T= 2.0043
 ExpMin= 1.83D-01 ExpMax= 1.72D+02 ExpMxC= 1.72D+02 IAcc=3 IRadAn=         5 AccDes= 0.00D+00
 HarFok:  IExCor=  205 AccDes= 0.00D+00 IRadAn=         5 IDoV=-2 UseB2=F ITyADJ=14
 ICtDFT= 12500011 ScaDFX=  1.000000  1.000000  1.000000  1.000000
 Range of M.O.s used for correlation:     3    26
 NBasis=    26 NAE=     8 NBE=     8 NFC=     2 NFV=     0
 NROrb=     24 NOA=     6 NOB=     6 NVA=    18 NVB=    18
 Fully direct method using O(ONN) memory.
 JobTyp=1 Pass  1:  I=   3 to   8 NPSUse=  3 ParTrn=F ParDer=T DoDerP=T.
 Spin components of T(2) and E(2):
     alpha-alpha T2 =       0.7175562309D-02 E2=     -0.1845297400D-01
     alpha-beta  T2 =       0.5957965374D-01 E2=     -0.1448749917D+00
     beta-beta   T2 =       0.7175562309D-02 E2=     -0.1845297400D-01
 ANorm=    0.1036306315D+01
 E2 =    -0.1817809397D+00 EUMP2 =    -0.77781305501986D+02
          IDoAtm=111111
          Differentiating once with respect to electric field.
                with respect to dipole field.
          Differentiating once with respect to nuclear coordinates.
 Keep R1 ints in memory in canonical form, NReq=871298.
          There are     1 degrees of freedom in the 1st order CPHF.  IDoFFX=0 NUNeed=     1.
 LinEq1:  Iter=  0 NonCon=     1 RMS=7.57D-03 Max=7.70D-02 NDo=     1
 AX will form     1 AO Fock derivatives at one time.
 LinEq1:  Iter=  1 NonCon=     1 RMS=2.39D-03 Max=1.54D-02 NDo=     1
 LinEq1:  Iter=  2 NonCon=     1 RMS=1.99D-04 Max=1.43D-03 NDo=     1
 LinEq1:  Iter=  3 NonCon=     1 RMS=1.27D-05 Max=8.18D-05 NDo=     1
 LinEq1:  Iter=  4 NonCon=     1 RMS=8.40D-07 Max=4.83D-06 NDo=     1
 LinEq1:  Iter=  5 NonCon=     1 RMS=4.69D-08 Max=2.43D-07 NDo=     1
 LinEq1:  Iter=  6 NonCon=     1 RMS=2.59D-09 Max=1.34D-08 NDo=     1
 LinEq1:  Iter=  7 NonCon=     1 RMS=1.25D-10 Max=6.14D-10 NDo=     1
 LinEq1:  Iter=  8 NonCon=     0 RMS=2.38D-11 Max=1.92D-10 NDo=     1
 Linear equations converged to 1.000D-10 1.000D-09 after     8 iterations.
 End of Minotr F.D. properties file   721 does not exist.
 End of Minotr F.D. properties file   722 does not exist.
 End of Minotr F.D. properties file   788 does not exist.
 Calling FoFJK, ICntrl=  10002127 FMM=F ISym2X=0 I1Cent= 0 IOpClX= 0 NMat=1 NMatS=1 NMatT=0.
 ***** Axes restored to original set *****
 -------------------------------------------------------------------
 Center     Atomic                   Forces (Hartrees/Bohr)
 Number     Number              X              Y              Z
 -------------------------------------------------------------------
      1        6           0.002748576    0.000760873   -0.001071523
      2        6          -0.002748230   -0.000760410    0.001071307
      3        1           0.000108400   -0.000044794    0.000050389
      4        1           0.000015882    0.000079144   -0.000098970
      5        1          -0.000015962   -0.000079466    0.000099147
      6        1          -0.000108666    0.000044653   -0.000050349
 -------------------------------------------------------------------
 Cartesian Forces:  Max     0.002748576 RMS     0.001017235

 GradGradGradGradGradGradGradGradGradGradGradGradGradGradGradGradGradGrad
 Berny optimization.
 Using GEDIIS/GDIIS optimizer.
 FormGI is forming the generalized inverse of G from B-inverse, IUseBI=4.
 Internal  Forces:  Max     0.003184388 RMS     0.000825717
 Search for a local minimum.
 Step number   2 out of a maximum of   25
 All quantities printed in internal units (Hartrees-Bohrs-Radians)
 Mixed Optimization -- En-DIIS/RFO-DIIS
 Update second derivatives using D2CorX and points    1    2
 DE= -4.91D-04 DEPred=-5.66D-04 R= 8.68D-01
 TightC=F SS=  1.41D+00  RLast= 5.76D-02 DXNew= 5.0454D-01 1.7285D-01
 Trust test= 8.68D-01 RLast= 5.76D-02 DXMaxT set to 3.00D-01
 The second derivative matrix:
                          R1        R2        R3        R4        R5
           R1           0.68430
           R2          -0.00178   0.35129
           R3          -0.00177  -0.00001   0.35130
           R4          -0.00178  -0.00001  -0.00001   0.35130
           R5          -0.00177  -0.00001  -0.00001  -0.00001   0.35129
           A1           0.00294   0.00004   0.00003   0.00003   0.00004
           A2           0.00294   0.00003   0.00003   0.00003   0.00004
           A3          -0.00587  -0.00007  -0.00007  -0.00007  -0.00007
           A4           0.00294   0.00003   0.00003   0.00003   0.00003
           A5           0.00294   0.00003   0.00003   0.00003   0.00004
           A6          -0.00588  -0.00007  -0.00007  -0.00007  -0.00007
           D1           0.00000   0.00000   0.00000   0.00000   0.00000
           D2           0.00000   0.00000   0.00000   0.00000   0.00000
           D3           0.00000   0.00000   0.00000   0.00000   0.00000
           D4           0.00000   0.00000   0.00000   0.00000   0.00000
                          A1        A2        A3        A4        A5
           A1           0.15992
           A2          -0.00008   0.15992
           A3           0.00016   0.00016   0.15968
           A4          -0.00008  -0.00008   0.00016   0.15992
           A5          -0.00008  -0.00008   0.00016  -0.00008   0.15992
           A6           0.00016   0.00016  -0.00032   0.00016   0.00016
           D1           0.00000   0.00000   0.00000   0.00000   0.00000
           D2           0.00000   0.00000   0.00000   0.00000   0.00000
           D3           0.00000   0.00000   0.00000   0.00000   0.00000
           D4           0.00000   0.00000   0.00000   0.00000   0.00000
                          A6        D1        D2        D3        D4
           A6           0.15968
           D1           0.00000   0.03087
           D2           0.00000   0.00000   0.03087
           D3           0.00000   0.00000   0.00000   0.03087
           D4           0.00000   0.00000   0.00000   0.00000   0.03087
 ITU=  1  0
 Use linear search instead of GDIIS.
     Eigenvalues ---    0.03087   0.03087   0.03087   0.15884   0.16000
     Eigenvalues ---    0.16000   0.16000   0.35122   0.35131   0.35131
     Eigenvalues ---    0.35131   0.68453
 RFO step:  Lambda=-1.84222933D-06 EMin= 3.08716499D-02
 Quartic linear search produced a step of -0.10570.
 Iteration  1 RMS(Cart)=  0.00189295 RMS(Int)=  0.00000015
 Iteration  2 RMS(Cart)=  0.00000015 RMS(Int)=  0.00000000
 Variable       Old X    -DE/DX   Delta X   Delta X   Delta X     New X
                                 (Linear)    (Quad)   (Total)
    R1        2.53911  -0.00318  -0.00382  -0.00088  -0.00470   2.53441
    R2        2.05135   0.00005   0.00035  -0.00020   0.00015   2.05149
    R3        2.05135   0.00005   0.00035  -0.00020   0.00015   2.05149
    R4        2.05135   0.00006   0.00035  -0.00020   0.00015   2.05149
    R5        2.05135   0.00005   0.00035  -0.00020   0.00015   2.05149
    A1        2.12717  -0.00008  -0.00136   0.00083  -0.00053   2.12664
    A2        2.12717  -0.00008  -0.00135   0.00083  -0.00053   2.12664
    A3        2.02885   0.00016   0.00271  -0.00166   0.00105   2.02991
    A4        2.12717  -0.00008  -0.00135   0.00083  -0.00053   2.12664
    A5        2.12717  -0.00008  -0.00136   0.00083  -0.00053   2.12664
    A6        2.02885   0.00016   0.00271  -0.00165   0.00106   2.02991
    D1        0.00000   0.00000   0.00000   0.00000   0.00000   0.00000
    D2       -3.14159   0.00000   0.00000   0.00000   0.00000   3.14159
    D3        3.14159   0.00000   0.00000   0.00000   0.00000  -3.14159
    D4        0.00000   0.00000   0.00000   0.00000   0.00000   0.00000
         Item               Value     Threshold  Converged?
 Maximum Force            0.003184     0.000450     NO 
 RMS     Force            0.000826     0.000300     NO 
 Maximum Displacement     0.003179     0.001800     NO 
 RMS     Displacement     0.001893     0.001200     NO 
 Predicted change in Energy=-7.567454D-06
 GradGradGradGradGradGradGradGradGradGradGradGradGradGradGradGradGradGrad

                          Input orientation:                          
 ---------------------------------------------------------------------
 Center     Atomic      Atomic             Coordinates (Angstroms)
 Number     Number       Type             X           Y           Z
 ---------------------------------------------------------------------
      1          6           0       -0.753359   -1.174628    1.560755
      2          6           0        0.456562   -0.839672    1.088962
      3          1           0       -0.873210   -1.849317    2.402756
      4          1           0       -1.667062   -0.786070    1.121775
      5          1           0        1.370266   -1.228230    1.527941
      6          1           0        0.576413   -0.164984    0.246961
 ---------------------------------------------------------------------
                    Distance matrix (angstroms):
                    1          2          3          4          5
     1  C    0.000000
     2  C    1.341153   0.000000
     3  H    1.085604   2.124554   0.000000
     4  H    1.085604   2.124554   1.844345   0.000000
     5  H    2.124554   1.085604   2.486812   3.096101   0.000000
     6  H    2.124554   1.085604   3.096101   2.486811   1.844345
                    6
     6  H    0.000000
 Stoichiometry    C2H4
 Framework group  C1[X(C2H4)]
 Deg. of freedom    12
 Full point group                 C1      NOp   1
 Largest Abelian subgroup         C1      NOp   1
 Largest concise Abelian subgroup C1      NOp   1
                         Standard orientation:                         
 ---------------------------------------------------------------------
 Center     Atomic      Atomic             Coordinates (Angstroms)
 Number     Number       Type             X           Y           Z
 ---------------------------------------------------------------------
      1          6           0        0.670576    0.000000    0.000000
      2          6           0       -0.670576    0.000000    0.000000
      3          1           0        1.243406   -0.922173    0.000000
      4          1           0        1.243405    0.922173    0.000000
      5          1           0       -1.243406   -0.922172    0.000000
      6          1           0       -1.243406    0.922172    0.000000
 ---------------------------------------------------------------------
 Rotational constants (GHZ):    147.4170805     29.6849271     24.7092924
 Standard basis: 3-21G (6D, 7F)
 There are    26 symmetry adapted cartesian basis functions of A   symmetry.
 There are    26 symmetry adapted basis functions of A   symmetry.
    26 basis functions,    42 primitive gaussians,    26 cartesian basis functions
     8 alpha electrons        8 beta electrons
       nuclear repulsion energy        33.2223773407 Hartrees.
 NAtoms=    6 NActive=    6 NUniq=    6 SFac= 1.00D+00 NAtFMM=   60 NAOKFM=F Big=F
 Integral buffers will be    131072 words long.
 Raffenetti 1 integral format.
 Two-electron integral symmetry is turned on.
 One-electron integrals computed using PRISM.
 NBasis=    26 RedAO= T EigKep=  1.67D-02  NBF=    26
 NBsUse=    26 1.00D-06 EigRej= -1.00D+00 NBFU=    26
 Initial guess from the checkpoint file:  "/scr/Gau-24694.chk"
 B after Tr=     0.000000    0.000000    0.000000
         Rot=    1.000000    0.000000    0.000000    0.000000 Ang=   0.00 deg.
 Keep R1 ints in memory in canonical form, NReq=889329.
 Requested convergence on RMS density matrix=1.00D-08 within 128 cycles.
 Requested convergence on MAX density matrix=1.00D-06.
 Requested convergence on             energy=1.00D-06.
 No special actions if energy rises.
 SCF Done:  E(RHF) =  -77.5996925328     A.U. after    7 cycles
            NFock=  7  Conv=0.17D-08     -V/T= 2.0042
 ExpMin= 1.83D-01 ExpMax= 1.72D+02 ExpMxC= 1.72D+02 IAcc=3 IRadAn=         5 AccDes= 0.00D+00
 HarFok:  IExCor=  205 AccDes= 0.00D+00 IRadAn=         5 IDoV=-2 UseB2=F ITyADJ=14
 ICtDFT= 12500011 ScaDFX=  1.000000  1.000000  1.000000  1.000000
 Range of M.O.s used for correlation:     3    26
 NBasis=    26 NAE=     8 NBE=     8 NFC=     2 NFV=     0
 NROrb=     24 NOA=     6 NOB=     6 NVA=    18 NVB=    18
 Fully direct method using O(ONN) memory.
 JobTyp=1 Pass  1:  I=   3 to   8 NPSUse=  3 ParTrn=F ParDer=T DoDerP=T.
 Spin components of T(2) and E(2):
     alpha-alpha T2 =       0.7160254066D-02 E2=     -0.1843729071D-01
     alpha-beta  T2 =       0.5944238168D-01 E2=     -0.1447465655D+00
     beta-beta   T2 =       0.7160254066D-02 E2=     -0.1843729071D-01
 ANorm=    0.1036225308D+01
 E2 =    -0.1816211470D+00 EUMP2 =    -0.77781313679797D+02
          IDoAtm=111111
          Differentiating once with respect to electric field.
                with respect to dipole field.
          Differentiating once with respect to nuclear coordinates.
 Keep R1 ints in memory in canonical form, NReq=871298.
          There are     1 degrees of freedom in the 1st order CPHF.  IDoFFX=0 NUNeed=     1.
 LinEq1:  Iter=  0 NonCon=     1 RMS=7.55D-03 Max=7.67D-02 NDo=     1
 AX will form     1 AO Fock derivatives at one time.
 LinEq1:  Iter=  1 NonCon=     1 RMS=2.38D-03 Max=1.53D-02 NDo=     1
 LinEq1:  Iter=  2 NonCon=     1 RMS=1.99D-04 Max=1.43D-03 NDo=     1
 LinEq1:  Iter=  3 NonCon=     1 RMS=1.27D-05 Max=8.19D-05 NDo=     1
 LinEq1:  Iter=  4 NonCon=     1 RMS=8.41D-07 Max=4.86D-06 NDo=     1
 LinEq1:  Iter=  5 NonCon=     1 RMS=4.68D-08 Max=2.42D-07 NDo=     1
 LinEq1:  Iter=  6 NonCon=     1 RMS=2.60D-09 Max=1.34D-08 NDo=     1
 LinEq1:  Iter=  7 NonCon=     1 RMS=1.31D-10 Max=7.38D-10 NDo=     1
 LinEq1:  Iter=  8 NonCon=     0 RMS=2.05D-11 Max=1.47D-10 NDo=     1
 Linear equations converged to 1.000D-10 1.000D-09 after     8 iterations.
 End of Minotr F.D. properties file   721 does not exist.
 End of Minotr F.D. properties file   722 does not exist.
 End of Minotr F.D. properties file   788 does not exist.
 Calling FoFJK, ICntrl=  10002127 FMM=F ISym2X=0 I1Cent= 0 IOpClX= 0 NMat=1 NMatS=1 NMatT=0.
 ***** Axes restored to original set *****
 -------------------------------------------------------------------
 Center     Atomic                   Forces (Hartrees/Bohr)
 Number     Number              X              Y              Z
 -------------------------------------------------------------------
      1        6           0.000353181    0.000097674   -0.000137698
      2        6          -0.000353013   -0.000097708    0.000137525
      3        1          -0.000078531   -0.000003385    0.000007910
      4        1          -0.000055878   -0.000033747    0.000044509
      5        1           0.000055797    0.000033753   -0.000044391
      6        1           0.000078444    0.000003413   -0.000007855
 -------------------------------------------------------------------
 Cartesian Forces:  Max     0.000353181 RMS     0.000135657

 GradGradGradGradGradGradGradGradGradGradGradGradGradGradGradGradGradGrad
 Berny optimization.
 Using GEDIIS/GDIIS optimizer.
 FormGI is forming the generalized inverse of G from B-inverse, IUseBI=4.
 Internal  Forces:  Max     0.000242486 RMS     0.000078874
 Search for a local minimum.
 Step number   3 out of a maximum of   25
 All quantities printed in internal units (Hartrees-Bohrs-Radians)
 Mixed Optimization -- En-DIIS/RFO-DIIS
 Swapping is turned off.
 Update second derivatives using D2CorX and points    1    2    3
 DE= -8.18D-06 DEPred=-7.57D-06 R= 1.08D+00
 TightC=F SS=  1.41D+00  RLast= 5.05D-03 DXNew= 5.0454D-01 1.5159D-02
 Trust test= 1.08D+00 RLast= 5.05D-03 DXMaxT set to 3.00D-01
 The second derivative matrix:
                          R1        R2        R3        R4        R5
           R1           0.61317
           R2           0.00278   0.35119
           R3           0.00279  -0.00012   0.35120
           R4           0.00278  -0.00012  -0.00012   0.35119
           R5           0.00277  -0.00012  -0.00012  -0.00012   0.35119
           A1           0.00955   0.00007   0.00007   0.00007   0.00007
           A2           0.00956   0.00007   0.00007   0.00007   0.00007
           A3          -0.01911  -0.00014  -0.00014  -0.00014  -0.00015
           A4           0.00954   0.00007   0.00007   0.00007   0.00007
           A5           0.00955   0.00007   0.00007   0.00007   0.00007
           A6          -0.01909  -0.00015  -0.00014  -0.00014  -0.00015
           D1           0.00000   0.00000   0.00000   0.00000   0.00000
           D2           0.00001   0.00000   0.00000   0.00000   0.00000
           D3          -0.00001   0.00000   0.00000   0.00000   0.00000
           D4           0.00000   0.00000   0.00000   0.00000   0.00000
                          A1        A2        A3        A4        A5
           A1           0.16038
           A2           0.00038   0.16038
           A3          -0.00077  -0.00077   0.16153
           A4           0.00038   0.00038  -0.00077   0.16039
           A5           0.00038   0.00038  -0.00077   0.00038   0.16038
           A6          -0.00077  -0.00077   0.00153  -0.00077  -0.00077
           D1           0.00000   0.00000   0.00000   0.00000   0.00000
           D2           0.00000   0.00000   0.00000   0.00000   0.00000
           D3           0.00000   0.00000   0.00000   0.00000   0.00000
           D4           0.00000   0.00000   0.00000   0.00000   0.00000
                          A6        D1        D2        D3        D4
           A6           0.16154
           D1           0.00000   0.03087
           D2           0.00000   0.00000   0.03087
           D3           0.00000   0.00000   0.00000   0.03087
           D4           0.00000   0.00000   0.00000   0.00000   0.03087
 ITU=  1  1  0
     Eigenvalues ---    0.03087   0.03087   0.03087   0.16000   0.16000
     Eigenvalues ---    0.16000   0.16218   0.35072   0.35131   0.35131
     Eigenvalues ---    0.35131   0.61571
 En-DIIS/RFO-DIIS IScMMF=        0 using points:     3    2
 RFO step:  Lambda=-1.67853581D-07.
 DidBck=F Rises=F RFO-DIIS coefs:    1.05558   -0.05558
 Iteration  1 RMS(Cart)=  0.00028186 RMS(Int)=  0.00000006
 Iteration  2 RMS(Cart)=  0.00000006 RMS(Int)=  0.00000001
 Variable       Old X    -DE/DX   Delta X   Delta X   Delta X     New X
                                 (Linear)    (Quad)   (Total)
    R1        2.53441  -0.00024  -0.00026  -0.00020  -0.00046   2.53395
    R2        2.05149   0.00002   0.00001   0.00004   0.00005   2.05154
    R3        2.05149   0.00002   0.00001   0.00004   0.00005   2.05154
    R4        2.05149   0.00002   0.00001   0.00004   0.00005   2.05154
    R5        2.05149   0.00002   0.00001   0.00004   0.00005   2.05154
    A1        2.12664   0.00005  -0.00003   0.00038   0.00035   2.12699
    A2        2.12664   0.00005  -0.00003   0.00038   0.00035   2.12699
    A3        2.02991  -0.00011   0.00006  -0.00075  -0.00069   2.02921
    A4        2.12664   0.00005  -0.00003   0.00038   0.00035   2.12699
    A5        2.12664   0.00005  -0.00003   0.00038   0.00035   2.12699
    A6        2.02991  -0.00011   0.00006  -0.00075  -0.00069   2.02921
    D1        0.00000   0.00000   0.00000   0.00000   0.00000   0.00000
    D2        3.14159   0.00000   0.00000   0.00000   0.00000  -3.14159
    D3       -3.14159   0.00000   0.00000   0.00000   0.00000   3.14159
    D4        0.00000   0.00000   0.00000   0.00000   0.00000   0.00000
         Item               Value     Threshold  Converged?
 Maximum Force            0.000242     0.000450     YES
 RMS     Force            0.000079     0.000300     YES
 Maximum Displacement     0.000505     0.001800     YES
 RMS     Displacement     0.000282     0.001200     YES
 Predicted change in Energy=-1.674611D-07
 Optimization completed.
    -- Stationary point found.
                           ----------------------------
                           !   Optimized Parameters   !
                           ! (Angstroms and Degrees)  !
 --------------------------                            --------------------------
 ! Name  Definition              Value          Derivative Info.                !
 --------------------------------------------------------------------------------
 ! R1    R(1,2)                  1.3412         -DE/DX =   -0.0002              !
 ! R2    R(1,3)                  1.0856         -DE/DX =    0.0                 !
 ! R3    R(1,4)                  1.0856         -DE/DX =    0.0                 !
 ! R4    R(2,5)                  1.0856         -DE/DX =    0.0                 !
 ! R5    R(2,6)                  1.0856         -DE/DX =    0.0                 !
 ! A1    A(2,1,3)              121.8475         -DE/DX =    0.0001              !
 ! A2    A(2,1,4)              121.8475         -DE/DX =    0.0001              !
 ! A3    A(3,1,4)              116.3051         -DE/DX =   -0.0001              !
 ! A4    A(1,2,5)              121.8475         -DE/DX =    0.0001              !
 ! A5    A(1,2,6)              121.8475         -DE/DX =    0.0001              !
 ! A6    A(5,2,6)              116.305          -DE/DX =   -0.0001              !
 ! D1    D(3,1,2,5)              0.0            -DE/DX =    0.0                 !
 ! D2    D(3,1,2,6)           -180.0001         -DE/DX =    0.0                 !
 ! D3    D(4,1,2,5)            180.0001         -DE/DX =    0.0                 !
 ! D4    D(4,1,2,6)              0.0            -DE/DX =    0.0                 !
 --------------------------------------------------------------------------------
 GradGradGradGradGradGradGradGradGradGradGradGradGradGradGradGradGradGrad

                          Input orientation:                          
 ---------------------------------------------------------------------
 Center     Atomic      Atomic             Coordinates (Angstroms)
 Number     Number       Type             X           Y           Z
 ---------------------------------------------------------------------
      1          6           0       -0.753359   -1.174628    1.560755
      2          6           0        0.456562   -0.839672    1.088962
      3          1           0       -0.873210   -1.849317    2.402756
      4          1           0       -1.667062   -0.786070    1.121775
      5          1           0        1.370266   -1.228230    1.527941
      6          1           0        0.576413   -0.164984    0.246961
 ---------------------------------------------------------------------
                    Distance matrix (angstroms):
                    1          2          3          4          5
     1  C    0.000000
     2  C    1.341153   0.000000
     3  H    1.085604   2.124554   0.000000
     4  H    1.085604   2.124554   1.844345   0.000000
     5  H    2.124554   1.085604   2.486812   3.096101   0.000000
     6  H    2.124554   1.085604   3.096101   2.486811   1.844345
                    6
     6  H    0.000000
 Stoichiometry    C2H4
 Framework group  C1[X(C2H4)]
 Deg. of freedom    12
 Full point group                 C1      NOp   1
 Largest Abelian subgroup         C1      NOp   1
 Largest concise Abelian subgroup C1      NOp   1
                         Standard orientation:                         
 ---------------------------------------------------------------------
 Center     Atomic      Atomic             Coordinates (Angstroms)
 Number     Number       Type             X           Y           Z
 ---------------------------------------------------------------------
      1          6           0        0.670576    0.000000    0.000000
      2          6           0       -0.670576    0.000000    0.000000
      3          1           0        1.243406   -0.922173    0.000000
      4          1           0        1.243405    0.922173    0.000000
      5          1           0       -1.243406   -0.922172    0.000000
      6          1           0       -1.243406    0.922172    0.000000
 ---------------------------------------------------------------------
 Rotational constants (GHZ):    147.4170805     29.6849271     24.7092924

 **********************************************************************

            Population analysis using the SCF density.

 **********************************************************************

 Orbital symmetries:
       Occupied  (A) (A) (A) (A) (A) (A) (A) (A)
       Virtual   (A) (A) (A) (A) (A) (A) (A) (A) (A) (A) (A) (A)
                 (A) (A) (A) (A) (A) (A)
 The electronic state is 1-A.
 Alpha  occ. eigenvalues --  -11.17342 -11.17340  -1.02840  -0.78704  -0.63978
 Alpha  occ. eigenvalues --   -0.58456  -0.49949  -0.37400
 Alpha virt. eigenvalues --    0.17985   0.29531   0.31010   0.33661   0.43506
 Alpha virt. eigenvalues --    0.53600   0.88788   0.92613   0.99356   1.07506
 Alpha virt. eigenvalues --    1.09576   1.12536   1.31213   1.35152   1.39095
 Alpha virt. eigenvalues --    1.63233   1.65752   1.95759
          Condensed to atoms (all electrons):
               1          2          3          4          5          6
     1  C    5.204745   0.530687   0.391160   0.391160  -0.046674  -0.046674
     2  C    0.530687   5.204744  -0.046674  -0.046674   0.391160   0.391160
     3  H    0.391160  -0.046674   0.465575  -0.022327  -0.001928   0.001993
     4  H    0.391160  -0.046674  -0.022327   0.465575   0.001993  -0.001928
     5  H   -0.046674   0.391160  -0.001928   0.001993   0.465575  -0.022327
     6  H   -0.046674   0.391160   0.001993  -0.001928  -0.022327   0.465575
 Mulliken charges:
               1
     1  C   -0.424403
     2  C   -0.424403
     3  H    0.212202
     4  H    0.212202
     5  H    0.212202
     6  H    0.212201
 Sum of Mulliken charges =   0.00000
 Mulliken charges with hydrogens summed into heavy atoms:
               1
     1  C    0.000000
     2  C    0.000000
 Electronic spatial extent (au):  <R**2>=             83.3797
 Charge=              0.0000 electrons
 Dipole moment (field-independent basis, Debye):
    X=              0.0000    Y=              0.0000    Z=              0.0000  Tot=              0.0000
 Quadrupole moment (field-independent basis, Debye-Ang):
   XX=            -12.0714   YY=            -12.3477   ZZ=            -15.7683
   XY=              0.0000   XZ=              0.0000   YZ=              0.0000
 Traceless Quadrupole moment (field-independent basis, Debye-Ang):
   XX=              1.3244   YY=              1.0481   ZZ=             -2.3725
   XY=              0.0000   XZ=              0.0000   YZ=              0.0000
 Octapole moment (field-independent basis, Debye-Ang**2):
  XXX=              0.0000  YYY=              0.0000  ZZZ=              0.0000  XYY=              0.0000
  XXY=              0.0000  XXZ=              0.0000  XZZ=              0.0000  YZZ=              0.0000
  YYZ=              0.0000  XYZ=              0.0000
 Hexadecapole moment (field-independent basis, Debye-Ang**3):
 XXXX=            -66.2089 YYYY=            -25.1702 ZZZZ=            -16.5560 XXXY=              0.0000
 XXXZ=              0.0000 YYYX=              0.0000 YYYZ=              0.0000 ZZZX=              0.0000
 ZZZY=              0.0000 XXYY=            -12.4628 XXZZ=            -15.0385 YYZZ=             -7.6110
 XXYZ=              0.0000 YYXZ=              0.0000 ZZXY=              0.0000
 N-N= 3.322237734067D+01 E-N=-2.463966526994D+02  KE= 7.727269042222D+01
 1\1\GINC-N0298\FOpt\RMP2-FC\3-21G\C2H4\TAIYUPAN\24-Feb-2017\0\\#n MP2/
 3-21G Opt\\Title\\0,1\C,-0.7533586264,-1.174627654,1.5607550202\C,0.45
 65616771,-0.8396719609,1.0889622951\H,-0.8732098263,-1.8493168064,2.40
 27560256\H,-1.6670623082,-0.7860698619,1.1217747219\H,1.3702658777,-1.
 2282302019,1.5279412418\H,0.5764131997,-0.1649835064,0.2469606851\\Ver
 sion=ES64L-G09RevE.01\State=1-A\HF=-77.5996925\MP2=-77.7813137\RMSD=1.
 690e-09\RMSF=1.357e-04\Dipole=0.,-0.0000004,-0.0000004\PG=C01 [X(C2H4)
 ]\\@


 MAN IS A SINGULAR CREATURE.  HE HAS A SET OF GIFTS
 WHICH MAKE HIM UNIQUE AMONG THE ANIMALS: SO THAT, 
 UNLIKE THEM, HE IS NOT A FIGURE IN THE LANDSCAPE --
 HE IS A SHAPER OF THE LANDSCAPE.

                       -- JACOB BRONOWSKI
 Job cpu time:       0 days  0 hours  0 minutes 23.1 seconds.
 File lengths (MBytes):  RWF=      5 Int=      0 D2E=      0 Chk=      1 Scr=      1
 Normal termination of Gaussian 09 at Fri Feb 24 00:13:07 2017.
