 Entering Gaussian System, Link 0=g09
 Input=CH3_M_3G.com
 Output=CH3_M_3G.log
 Initial command:
 /sw/contrib/gaussian/g09/E01/g09/l1.exe "/scr/Gau-7819.inp" -scrdir="/scr/"
 Entering Link 1 = /sw/contrib/gaussian/g09/E01/g09/l1.exe PID=      7820.
  
 Copyright (c) 1988,1990,1992,1993,1995,1998,2003,2009,2015,
            Gaussian, Inc.  All Rights Reserved.
  
 This is part of the Gaussian(R) 09 program.  It is based on
 the Gaussian(R) 03 system (copyright 2003, Gaussian, Inc.),
 the Gaussian(R) 98 system (copyright 1998, Gaussian, Inc.),
 the Gaussian(R) 94 system (copyright 1995, Gaussian, Inc.),
 the Gaussian 92(TM) system (copyright 1992, Gaussian, Inc.),
 the Gaussian 90(TM) system (copyright 1990, Gaussian, Inc.),
 the Gaussian 88(TM) system (copyright 1988, Gaussian, Inc.),
 the Gaussian 86(TM) system (copyright 1986, Carnegie Mellon
 University), and the Gaussian 82(TM) system (copyright 1983,
 Carnegie Mellon University). Gaussian is a federally registered
 trademark of Gaussian, Inc.
  
 This software contains proprietary and confidential information,
 including trade secrets, belonging to Gaussian, Inc.
  
 This software is provided under written license and may be
 used, copied, transmitted, or stored only in accord with that
 written license.
  
 The following legend is applicable only to US Government
 contracts under FAR:
  
                    RESTRICTED RIGHTS LEGEND
  
 Use, reproduction and disclosure by the US Government is
 subject to restrictions as set forth in subparagraphs (a)
 and (c) of the Commercial Computer Software - Restricted
 Rights clause in FAR 52.227-19.
  
 Gaussian, Inc.
 340 Quinnipiac St., Bldg. 40, Wallingford CT 06492
  
  
 ---------------------------------------------------------------
 Warning -- This program may not be used in any manner that
 competes with the business of Gaussian, Inc. or will provide
 assistance to any competitor of Gaussian, Inc.  The licensee
 of this program is prohibited from giving any competitor of
 Gaussian, Inc. access to this program.  By using this program,
 the user acknowledges that Gaussian, Inc. is engaged in the
 business of creating and licensing software in the field of
 computational chemistry and represents and warrants to the
 licensee that it is not a competitor of Gaussian, Inc. and that
 it will not use this program in any manner prohibited above.
 ---------------------------------------------------------------
  

 Cite this work as:
 Gaussian 09, Revision E.01,
 M. J. Frisch, G. W. Trucks, H. B. Schlegel, G. E. Scuseria, 
 M. A. Robb, J. R. Cheeseman, G. Scalmani, V. Barone, B. Mennucci, 
 G. A. Petersson, H. Nakatsuji, M. Caricato, X. Li, H. P. Hratchian, 
 A. F. Izmaylov, J. Bloino, G. Zheng, J. L. Sonnenberg, M. Hada, 
 M. Ehara, K. Toyota, R. Fukuda, J. Hasegawa, M. Ishida, T. Nakajima, 
 Y. Honda, O. Kitao, H. Nakai, T. Vreven, J. A. Montgomery, Jr., 
 J. E. Peralta, F. Ogliaro, M. Bearpark, J. J. Heyd, E. Brothers, 
 K. N. Kudin, V. N. Staroverov, T. Keith, R. Kobayashi, J. Normand, 
 K. Raghavachari, A. Rendell, J. C. Burant, S. S. Iyengar, J. Tomasi, 
 M. Cossi, N. Rega, J. M. Millam, M. Klene, J. E. Knox, J. B. Cross, 
 V. Bakken, C. Adamo, J. Jaramillo, R. Gomperts, R. E. Stratmann, 
 O. Yazyev, A. J. Austin, R. Cammi, C. Pomelli, J. W. Ochterski, 
 R. L. Martin, K. Morokuma, V. G. Zakrzewski, G. A. Voth, 
 P. Salvador, J. J. Dannenberg, S. Dapprich, A. D. Daniels, 
 O. Farkas, J. B. Foresman, J. V. Ortiz, J. Cioslowski, 
 and D. J. Fox, Gaussian, Inc., Wallingford CT, 2013.
 
 ******************************************
 Gaussian 09:  ES64L-G09RevE.01 30-Nov-2015
                23-Feb-2017 
 ******************************************
 %NProcShared=8
 Will use up to    8 processors via shared memory.
 ----------------
 #n MP2/3-21G Opt
 ----------------
 1/18=20,19=15,38=1/1,3;
 2/9=110,12=2,17=6,18=5,40=1/2;
 3/5=5,11=9,16=1,25=1,30=1,71=1/1,2,3;
 4//1;
 5/5=2,38=5/2;
 8/6=4,10=1/1;
 9/15=2,16=-3/6;
 10/5=1/2;
 6/7=2,8=2,9=2,10=2/1;
 7/12=2/1,2,3,16;
 1/18=20,19=15/3(2);
 2/9=110/2;
 99//99;
 2/9=110/2;
 3/5=5,11=9,16=1,25=1,30=1,71=1/1,2,3;
 4/5=5,16=3,69=1/1;
 5/5=2,38=5/2;
 8/6=4,10=1/1;
 9/15=2,16=-3/6;
 10/5=1/2;
 7/12=2/1,2,3,16;
 1/18=20,19=15/3(-8);
 2/9=110/2;
 6/7=2,8=2,9=2,10=2/1;
 99//99;
 -------------
 CH3_MP2/3-21G
 -------------
 Symbolic Z-matrix:
 Charge =  0 Multiplicity = 1
 C                    -1.76985   1.60508   0. 
 C                    -0.94833   0.30637   0. 
 H                    -2.70278   1.46556   0.5507 
 H                    -2.01181   1.90264  -1.02275 
 H                    -1.2057    2.41255   0.47205 
 H                    -1.51248  -0.5011   -0.47205 
 H                    -0.70637   0.00881   1.02275 
 H                    -0.0154    0.44589  -0.5507 
 

 GradGradGradGradGradGradGradGradGradGradGradGradGradGradGradGradGradGrad
 Berny optimization.
 Initialization pass.
                           ----------------------------
                           !    Initial Parameters    !
                           ! (Angstroms and Degrees)  !
 --------------------------                            --------------------------
 ! Name  Definition              Value          Derivative Info.                !
 --------------------------------------------------------------------------------
 ! R1    R(1,2)                  1.5367         estimate D2E/DX2                !
 ! R2    R(1,3)                  1.0923         estimate D2E/DX2                !
 ! R3    R(1,4)                  1.0923         estimate D2E/DX2                !
 ! R4    R(1,5)                  1.0923         estimate D2E/DX2                !
 ! R5    R(2,6)                  1.0923         estimate D2E/DX2                !
 ! R6    R(2,7)                  1.0923         estimate D2E/DX2                !
 ! R7    R(2,8)                  1.0923         estimate D2E/DX2                !
 ! A1    A(2,1,3)              110.4046         estimate D2E/DX2                !
 ! A2    A(2,1,4)              110.4044         estimate D2E/DX2                !
 ! A3    A(2,1,5)              110.404          estimate D2E/DX2                !
 ! A4    A(3,1,4)              108.5221         estimate D2E/DX2                !
 ! A5    A(3,1,5)              108.5221         estimate D2E/DX2                !
 ! A6    A(4,1,5)              108.5224         estimate D2E/DX2                !
 ! A7    A(1,2,6)              110.404          estimate D2E/DX2                !
 ! A8    A(1,2,7)              110.4044         estimate D2E/DX2                !
 ! A9    A(1,2,8)              110.4046         estimate D2E/DX2                !
 ! A10   A(6,2,7)              108.5224         estimate D2E/DX2                !
 ! A11   A(6,2,8)              108.5221         estimate D2E/DX2                !
 ! A12   A(7,2,8)              108.5221         estimate D2E/DX2                !
 ! D1    D(3,1,2,6)             60.0001         estimate D2E/DX2                !
 ! D2    D(3,1,2,7)            -59.9999         estimate D2E/DX2                !
 ! D3    D(3,1,2,8)            180.0            estimate D2E/DX2                !
 ! D4    D(4,1,2,6)            -59.9999         estimate D2E/DX2                !
 ! D5    D(4,1,2,7)            180.0            estimate D2E/DX2                !
 ! D6    D(4,1,2,8)             59.9999         estimate D2E/DX2                !
 ! D7    D(5,1,2,6)           -180.0            estimate D2E/DX2                !
 ! D8    D(5,1,2,7)             59.9999         estimate D2E/DX2                !
 ! D9    D(5,1,2,8)            -60.0001         estimate D2E/DX2                !
 --------------------------------------------------------------------------------
 Trust Radius=3.00D-01 FncErr=1.00D-07 GrdErr=1.00D-07
 Number of steps in this run=     38 maximum allowed number of steps=    100.
 GradGradGradGradGradGradGradGradGradGradGradGradGradGradGradGradGradGrad

                          Input orientation:                          
 ---------------------------------------------------------------------
 Center     Atomic      Atomic             Coordinates (Angstroms)
 Number     Number       Type             X           Y           Z
 ---------------------------------------------------------------------
      1          6           0       -1.769850    1.605080    0.000000
      2          6           0       -0.948330    0.306370    0.000000
      3          1           0       -2.702780    1.465560    0.550700
      4          1           0       -2.011810    1.902640   -1.022750
      5          1           0       -1.205700    2.412550    0.472050
      6          1           0       -1.512480   -0.501100   -0.472050
      7          1           0       -0.706370    0.008810    1.022750
      8          1           0       -0.015400    0.445890   -0.550700
 ---------------------------------------------------------------------
                    Distance matrix (angstroms):
                    1          2          3          4          5
     1  C    0.000000
     2  C    1.536731   0.000000
     3  H    1.092289   2.173726   0.000000
     4  H    1.092293   2.173726   1.773196   0.000000
     5  H    1.092293   2.173721   1.773196   1.773203   0.000000
     6  H    2.173721   1.092293   2.516065   2.516062   3.078116
     7  H    2.173726   1.092293   2.516069   3.078122   2.516062
     8  H    2.173726   1.092289   3.078120   2.516069   2.516065
                    6          7          8
     6  H    0.000000
     7  H    1.773203   0.000000
     8  H    1.773196   1.773196   0.000000
 This structure is nearly, but not quite of a higher symmetry.
 Consider Symm=Loose if the higher symmetry is desired.
 Stoichiometry    C2H6
 Framework group  CI[X(C2H6)]
 Deg. of freedom     9
 Full point group                 CI      NOp   2
 Largest Abelian subgroup         CI      NOp   2
 Largest concise Abelian subgroup CI      NOp   2
                         Standard orientation:                         
 ---------------------------------------------------------------------
 Center     Atomic      Atomic             Coordinates (Angstroms)
 Number     Number       Type             X           Y           Z
 ---------------------------------------------------------------------
      1          6           0       -0.410760    0.649355    0.000000
      2          6           0        0.410760   -0.649355    0.000000
      3          1           0       -1.343690    0.509835    0.550700
      4          1           0       -0.652720    0.946915   -1.022750
      5          1           0        0.153390    1.456825    0.472050
      6          1           0       -0.153390   -1.456825   -0.472050
      7          1           0        0.652720   -0.946915    1.022750
      8          1           0        1.343690   -0.509835   -0.550700
 ---------------------------------------------------------------------
 Rotational constants (GHZ):     79.7420612     19.9566490     19.9566228
 Standard basis: 3-21G (6D, 7F)
 There are    15 symmetry adapted cartesian basis functions of AG  symmetry.
 There are    15 symmetry adapted cartesian basis functions of AU  symmetry.
 There are    15 symmetry adapted basis functions of AG  symmetry.
 There are    15 symmetry adapted basis functions of AU  symmetry.
    30 basis functions,    48 primitive gaussians,    30 cartesian basis functions
     9 alpha electrons        9 beta electrons
       nuclear repulsion energy        42.1696170358 Hartrees.
 NAtoms=    8 NActive=    8 NUniq=    4 SFac= 4.00D+00 NAtFMM=   60 NAOKFM=F Big=F
 Integral buffers will be    131072 words long.
 Raffenetti 1 integral format.
 Two-electron integral symmetry is turned on.
 One-electron integrals computed using PRISM.
 NBasis=    30 RedAO= T EigKep=  1.33D-02  NBF=    15    15
 NBsUse=    30 1.00D-06 EigRej= -1.00D+00 NBFU=    15    15
 ExpMin= 1.83D-01 ExpMax= 1.72D+02 ExpMxC= 1.72D+02 IAcc=1 IRadAn=         1 AccDes= 0.00D+00
 Harris functional with IExCor=  205 and IRadAn=       1 diagonalized for initial guess.
 HarFok:  IExCor=  205 AccDes= 0.00D+00 IRadAn=         1 IDoV= 1 UseB2=F ITyADJ=14
 ICtDFT=  3500011 ScaDFX=  1.000000  1.000000  1.000000  1.000000
 FoFCou: FMM=F IPFlag=           0 FMFlag=      100000 FMFlg1=           0
         NFxFlg=           0 DoJE=T BraDBF=F KetDBF=T FulRan=T
         wScrn=  0.000000 ICntrl=     500 IOpCl=  0 I1Cent=   200000004 NGrid=           0
         NMat0=    1 NMatS0=      1 NMatT0=    0 NMatD0=    1 NMtDS0=    0 NMtDT0=    0
 Petite list used in FoFCou.
 Initial guess orbital symmetries:
       Occupied  (AU) (AG) (AG) (AU) (AU) (AU) (AG) (AG) (AG)
       Virtual   (AG) (AU) (AU) (AU) (AG) (AG) (AU) (AU) (AU) (AG)
                 (AU) (AG) (AG) (AG) (AU) (AU) (AG) (AG) (AU) (AG)
                 (AU)
 The electronic state of the initial guess is 1-AG.
 Keep R1 ints in memory in symmetry-blocked form, NReq=940952.
 Requested convergence on RMS density matrix=1.00D-08 within 128 cycles.
 Requested convergence on MAX density matrix=1.00D-06.
 Requested convergence on             energy=1.00D-06.
 No special actions if energy rises.
 SCF Done:  E(RHF) =  -78.7935858123     A.U. after    9 cycles
            NFock=  9  Conv=0.65D-09     -V/T= 2.0026
 ExpMin= 1.83D-01 ExpMax= 1.72D+02 ExpMxC= 1.72D+02 IAcc=3 IRadAn=         5 AccDes= 0.00D+00
 HarFok:  IExCor=  205 AccDes= 0.00D+00 IRadAn=         5 IDoV=-2 UseB2=F ITyADJ=14
 ICtDFT= 12500011 ScaDFX=  1.000000  1.000000  1.000000  1.000000
 Range of M.O.s used for correlation:     3    30
 NBasis=    30 NAE=     9 NBE=     9 NFC=     2 NFV=     0
 NROrb=     28 NOA=     7 NOB=     7 NVA=    21 NVB=    21
 Fully direct method using O(ONN) memory.
 JobTyp=1 Pass  1:  I=   3 to   9 NPSUse=  3 ParTrn=F ParDer=T DoDerP=T.
 Spin components of T(2) and E(2):
     alpha-alpha T2 =       0.6351413077D-02 E2=     -0.1748692161D-01
     alpha-beta  T2 =       0.5541501495D-01 E2=     -0.1533069440D+00
     beta-beta   T2 =       0.6351413077D-02 E2=     -0.1748692161D-01
 ANorm=    0.1033497867D+01
 E2 =    -0.1882807872D+00 EUMP2 =    -0.78981866599472D+02
          IDoAtm=11111111
          Differentiating once with respect to electric field.
                with respect to dipole field.
          Differentiating once with respect to nuclear coordinates.
 Keep R1 ints in memory in symmetry-blocked form, NReq=923085.
          There are     1 degrees of freedom in the 1st order CPHF.  IDoFFX=0 NUNeed=     1.
 LinEq1:  Iter=  0 NonCon=     1 RMS=3.89D-03 Max=1.96D-02 NDo=     1
 AX will form     1 AO Fock derivatives at one time.
 LinEq1:  Iter=  1 NonCon=     1 RMS=1.61D-03 Max=1.07D-02 NDo=     1
 LinEq1:  Iter=  2 NonCon=     1 RMS=1.12D-04 Max=6.35D-04 NDo=     1
 LinEq1:  Iter=  3 NonCon=     1 RMS=7.43D-06 Max=4.10D-05 NDo=     1
 LinEq1:  Iter=  4 NonCon=     1 RMS=4.84D-07 Max=2.21D-06 NDo=     1
 LinEq1:  Iter=  5 NonCon=     1 RMS=2.49D-08 Max=1.23D-07 NDo=     1
 LinEq1:  Iter=  6 NonCon=     1 RMS=1.93D-09 Max=1.69D-08 NDo=     1
 LinEq1:  Iter=  7 NonCon=     1 RMS=1.88D-10 Max=1.36D-09 NDo=     1
 LinEq1:  Iter=  8 NonCon=     0 RMS=1.59D-11 Max=7.28D-11 NDo=     1
 Linear equations converged to 1.000D-10 1.000D-09 after     8 iterations.
 End of Minotr F.D. properties file   721 does not exist.
 End of Minotr F.D. properties file   722 does not exist.
 End of Minotr F.D. properties file   788 does not exist.

 **********************************************************************

            Population analysis using the SCF density.

 **********************************************************************

 Orbital symmetries:
       Occupied  (AU) (AG) (AG) (AU) (AU) (AU) (AG) (AG) (AG)
       Virtual   (AG) (AU) (AU) (AU) (AG) (AG) (AU) (AU) (AU) (AG)
                 (AU) (AG) (AG) (AG) (AG) (AG) (AU) (AU) (AU) (AG)
                 (AU)
 The electronic state is 1-AG.
 Alpha  occ. eigenvalues --  -11.15460 -11.15437  -1.01891  -0.84097  -0.59906
 Alpha  occ. eigenvalues --   -0.59906  -0.50181  -0.48455  -0.48455
 Alpha virt. eigenvalues --    0.27667   0.33738   0.33738   0.34225   0.36824
 Alpha virt. eigenvalues --    0.36824   0.42486   0.91196   0.91196   0.96932
 Alpha virt. eigenvalues --    1.07516   1.08737   1.08737   1.27972   1.36409
 Alpha virt. eigenvalues --    1.36409   1.36427   1.36427   1.44205   1.93790
 Alpha virt. eigenvalues --    2.29961
          Condensed to atoms (all electrons):
               1          2          3          4          5          6
     1  C    5.352368   0.239099   0.378272   0.378272   0.378271  -0.043618
     2  C    0.239099   5.352368  -0.043617  -0.043617  -0.043618   0.378271
     3  H    0.378272  -0.043617   0.520122  -0.026278  -0.026278  -0.001835
     4  H    0.378272  -0.043617  -0.026278   0.520124  -0.026278  -0.001835
     5  H    0.378271  -0.043618  -0.026278  -0.026278   0.520125   0.002973
     6  H   -0.043618   0.378271  -0.001835  -0.001835   0.002973   0.520125
     7  H   -0.043617   0.378272  -0.001835   0.002973  -0.001835  -0.026278
     8  H   -0.043617   0.378272   0.002973  -0.001835  -0.001835  -0.026278
               7          8
     1  C   -0.043617  -0.043617
     2  C    0.378272   0.378272
     3  H   -0.001835   0.002973
     4  H    0.002973  -0.001835
     5  H   -0.001835  -0.001835
     6  H   -0.026278  -0.026278
     7  H    0.520124  -0.026278
     8  H   -0.026278   0.520122
 Mulliken charges:
               1
     1  C   -0.595428
     2  C   -0.595428
     3  H    0.198477
     4  H    0.198476
     5  H    0.198476
     6  H    0.198476
     7  H    0.198476
     8  H    0.198477
 Sum of Mulliken charges =   0.00000
 Mulliken charges with hydrogens summed into heavy atoms:
               1
     1  C    0.000000
     2  C    0.000000
 Electronic spatial extent (au):  <R**2>=            110.0591
 Charge=              0.0000 electrons
 Dipole moment (field-independent basis, Debye):
    X=              0.0000    Y=              0.0000    Z=              0.0000  Tot=              0.0000
 Quadrupole moment (field-independent basis, Debye-Ang):
   XX=            -15.2167   YY=            -15.4864   ZZ=            -15.0369
   XY=              0.2843   XZ=              0.0000   YZ=              0.0000
 Traceless Quadrupole moment (field-independent basis, Debye-Ang):
   XX=              0.0299   YY=             -0.2397   ZZ=              0.2098
   XY=              0.2843   XZ=              0.0000   YZ=              0.0000
 Octapole moment (field-independent basis, Debye-Ang**2):
  XXX=              0.0000  YYY=              0.0000  ZZZ=              0.0000  XYY=              0.0000
  XXY=              0.0000  XXZ=              0.0000  XZZ=              0.0000  YZZ=              0.0000
  YYZ=              0.0000  XYZ=              0.0000
 Hexadecapole moment (field-independent basis, Debye-Ang**3):
 XXXX=            -45.4237 YYYY=            -72.9059 ZZZZ=            -28.1214 XXXY=             13.9378
 XXXZ=             -1.6468 YYYX=             15.4917 YYYZ=              1.0417 ZZZX=              0.7685
 ZZZY=             -1.2150 XXYY=            -20.4026 XXZZ=            -11.9414 YYZZ=            -16.3994
 XXYZ=              0.1733 YYXZ=              0.8782 ZZXY=              4.2516
 N-N= 4.216961703580D+01 E-N=-2.668396862585D+02  KE= 7.858903413195D+01
 Symmetry AG   KE= 4.076385305861D+01
 Symmetry AU   KE= 3.782518107334D+01
 Calling FoFJK, ICntrl=  10002127 FMM=F ISym2X=1 I1Cent= 0 IOpClX= 0 NMat=1 NMatS=1 NMatT=0.
 ***** Axes restored to original set *****
 -------------------------------------------------------------------
 Center     Atomic                   Forces (Hartrees/Bohr)
 Number     Number              X              Y              Z
 -------------------------------------------------------------------
      1        6          -0.001960252    0.003105063   -0.000001024
      2        6           0.001960252   -0.003105063    0.000001024
      3        1          -0.001736766    0.001053314    0.000577307
      4        1          -0.001011772    0.001511469   -0.001069236
      5        1          -0.000169704    0.002044953    0.000493082
      6        1           0.000169704   -0.002044953   -0.000493082
      7        1           0.001011772   -0.001511469    0.001069236
      8        1           0.001736766   -0.001053314   -0.000577307
 -------------------------------------------------------------------
 Cartesian Forces:  Max     0.003105063 RMS     0.001495782

 GradGradGradGradGradGradGradGradGradGradGradGradGradGradGradGradGradGrad
 Berny optimization.
 FormGI is forming the generalized inverse of G from B-inverse, IUseBI=4.
 Internal  Forces:  Max     0.009127860 RMS     0.002081448
 Search for a local minimum.
 Step number   1 out of a maximum of   38
 All quantities printed in internal units (Hartrees-Bohrs-Radians)
 Mixed Optimization -- RFO/linear search
 Second derivative matrix not updated -- first step.
 ITU=  0
     Eigenvalues ---    0.00280   0.05575   0.05575   0.05575   0.05575
     Eigenvalues ---    0.16000   0.16000   0.16000   0.16000   0.16000
     Eigenvalues ---    0.16000   0.28810   0.34549   0.34549   0.34549
     Eigenvalues ---    0.34549   0.34549   0.34549
 RFO step:  Lambda=-4.71669929D-04 EMin= 2.80064107D-03
 Linear search not attempted -- first point.
 Iteration  1 RMS(Cart)=  0.01604863 RMS(Int)=  0.00003770
 Iteration  2 RMS(Cart)=  0.00002773 RMS(Int)=  0.00002210
 Iteration  3 RMS(Cart)=  0.00000000 RMS(Int)=  0.00002210
 ClnCor:  largest displacement from symmetrization is 4.53D-11 for atom     7.
 Variable       Old X    -DE/DX   Delta X   Delta X   Delta X     New X
                                 (Linear)    (Quad)   (Total)
    R1        2.90400   0.00913   0.00000   0.03163   0.03163   2.93563
    R2        2.06413   0.00164   0.00000   0.00474   0.00474   2.06887
    R3        2.06413   0.00164   0.00000   0.00473   0.00473   2.06887
    R4        2.06413   0.00164   0.00000   0.00473   0.00473   2.06887
    R5        2.06413   0.00164   0.00000   0.00473   0.00473   2.06887
    R6        2.06413   0.00164   0.00000   0.00473   0.00473   2.06887
    R7        2.06413   0.00164   0.00000   0.00474   0.00474   2.06887
    A1        1.92692   0.00133   0.00000   0.00827   0.00823   1.93516
    A2        1.92692   0.00133   0.00000   0.00827   0.00824   1.93516
    A3        1.92691   0.00133   0.00000   0.00828   0.00825   1.93516
    A4        1.89407  -0.00137   0.00000  -0.00855  -0.00859   1.88548
    A5        1.89407  -0.00137   0.00000  -0.00855  -0.00859   1.88548
    A6        1.89407  -0.00137   0.00000  -0.00856  -0.00859   1.88548
    A7        1.92691   0.00133   0.00000   0.00828   0.00825   1.93516
    A8        1.92692   0.00133   0.00000   0.00827   0.00824   1.93516
    A9        1.92692   0.00133   0.00000   0.00827   0.00823   1.93516
   A10        1.89407  -0.00137   0.00000  -0.00856  -0.00859   1.88548
   A11        1.89407  -0.00137   0.00000  -0.00855  -0.00859   1.88548
   A12        1.89407  -0.00137   0.00000  -0.00855  -0.00859   1.88548
    D1        1.04720   0.00000   0.00000   0.00000   0.00000   1.04720
    D2       -1.04720   0.00000   0.00000   0.00000   0.00000  -1.04720
    D3        3.14159   0.00000   0.00000   0.00000   0.00000   3.14159
    D4       -1.04720   0.00000   0.00000   0.00000   0.00000  -1.04720
    D5        3.14159   0.00000   0.00000   0.00000   0.00000   3.14159
    D6        1.04720   0.00000   0.00000   0.00000   0.00000   1.04720
    D7        3.14159   0.00000   0.00000   0.00000   0.00000   3.14159
    D8        1.04720   0.00000   0.00000   0.00000   0.00000   1.04720
    D9       -1.04720   0.00000   0.00000   0.00000   0.00000  -1.04720
         Item               Value     Threshold  Converged?
 Maximum Force            0.009128     0.000450     NO 
 RMS     Force            0.002081     0.000300     NO 
 Maximum Displacement     0.028947     0.001800     NO 
 RMS     Displacement     0.016054     0.001200     NO 
 Predicted change in Energy=-2.363029D-04
 GradGradGradGradGradGradGradGradGradGradGradGradGradGradGradGradGradGrad

                          Input orientation:                          
 ---------------------------------------------------------------------
 Center     Atomic      Atomic             Coordinates (Angstroms)
 Number     Number       Type             X           Y           Z
 ---------------------------------------------------------------------
      1          6           0       -1.774322    1.612154    0.000000
      2          6           0       -0.943858    0.299296    0.000000
      3          1           0       -2.711641    1.480878    0.550254
      4          1           0       -2.021230    1.917607   -1.021917
      5          1           0       -1.215780    2.427106    0.471664
      6          1           0       -1.502400   -0.515656   -0.471664
      7          1           0       -0.696950   -0.006157    1.021917
      8          1           0       -0.006539    0.430572   -0.550254
 ---------------------------------------------------------------------
                    Distance matrix (angstroms):
                    1          2          3          4          5
     1  C    0.000000
     2  C    1.553469   0.000000
     3  H    1.094797   2.196355   0.000000
     4  H    1.094797   2.196355   1.771757   0.000000
     5  H    1.094797   2.196357   1.771757   1.771757   0.000000
     6  H    2.196357   1.094797   2.548083   2.548084   3.103524
     7  H    2.196355   1.094797   2.548082   3.103521   2.548084
     8  H    2.196355   1.094797   3.103521   2.548082   2.548083
                    6          7          8
     6  H    0.000000
     7  H    1.771757   0.000000
     8  H    1.771757   1.771757   0.000000
 Stoichiometry    C2H6
 Framework group  CI[X(C2H6)]
 Deg. of freedom     9
 Full point group                 CI      NOp   2
 Largest Abelian subgroup         CI      NOp   2
 Largest concise Abelian subgroup CI      NOp   2
                         Standard orientation:                         
 ---------------------------------------------------------------------
 Center     Atomic      Atomic             Coordinates (Angstroms)
 Number     Number       Type             X           Y           Z
 ---------------------------------------------------------------------
      1          6           0       -0.415232    0.656429    0.000000
      2          6           0        0.415232   -0.656429    0.000000
      3          1           0       -1.352551    0.525153    0.550254
      4          1           0       -0.662140    0.961882   -1.021917
      5          1           0        0.143310    1.471381    0.471664
      6          1           0       -0.143310   -1.471381   -0.471664
      7          1           0        0.662140   -0.961882    1.021917
      8          1           0        1.352551   -0.525153   -0.550254
 ---------------------------------------------------------------------
 Rotational constants (GHZ):     79.8718353     19.5302398     19.5302380
 Standard basis: 3-21G (6D, 7F)
 There are    15 symmetry adapted cartesian basis functions of AG  symmetry.
 There are    15 symmetry adapted cartesian basis functions of AU  symmetry.
 There are    15 symmetry adapted basis functions of AG  symmetry.
 There are    15 symmetry adapted basis functions of AU  symmetry.
    30 basis functions,    48 primitive gaussians,    30 cartesian basis functions
     9 alpha electrons        9 beta electrons
       nuclear repulsion energy        41.8872085355 Hartrees.
 NAtoms=    8 NActive=    8 NUniq=    4 SFac= 4.00D+00 NAtFMM=   60 NAOKFM=F Big=F
 Integral buffers will be    131072 words long.
 Raffenetti 1 integral format.
 Two-electron integral symmetry is turned on.
 One-electron integrals computed using PRISM.
 NBasis=    30 RedAO= T EigKep=  1.40D-02  NBF=    15    15
 NBsUse=    30 1.00D-06 EigRej= -1.00D+00 NBFU=    15    15
 Initial guess from the checkpoint file:  "/scr/Gau-7820.chk"
 B after Tr=     0.000000    0.000000    0.000000
         Rot=    1.000000    0.000000    0.000000    0.000001 Ang=   0.00 deg.
 Initial guess orbital symmetries:
       Occupied  (AU) (AG) (AG) (AU) (AU) (AU) (AG) (AG) (AG)
       Virtual   (AG) (AG) (AG) (AG) (AG) (AG) (AG) (AG) (AG) (AG)
                 (AU) (AU) (AU) (AU) (AU) (AU) (AU) (AU) (AU) (AU)
                 (AU)
 ExpMin= 1.83D-01 ExpMax= 1.72D+02 ExpMxC= 1.72D+02 IAcc=1 IRadAn=         1 AccDes= 0.00D+00
 Harris functional with IExCor=  205 and IRadAn=       1 diagonalized for initial guess.
 HarFok:  IExCor=  205 AccDes= 0.00D+00 IRadAn=         1 IDoV= 1 UseB2=F ITyADJ=14
 ICtDFT=  3500011 ScaDFX=  1.000000  1.000000  1.000000  1.000000
 FoFCou: FMM=F IPFlag=           0 FMFlag=      100000 FMFlg1=           0
         NFxFlg=           0 DoJE=T BraDBF=F KetDBF=T FulRan=T
         wScrn=  0.000000 ICntrl=     500 IOpCl=  0 I1Cent=   200000004 NGrid=           0
         NMat0=    1 NMatS0=      1 NMatT0=    0 NMatD0=    1 NMtDS0=    0 NMtDT0=    0
 Petite list used in FoFCou.
 Keep R1 ints in memory in symmetry-blocked form, NReq=941006.
 Requested convergence on RMS density matrix=1.00D-08 within 128 cycles.
 Requested convergence on MAX density matrix=1.00D-06.
 Requested convergence on             energy=1.00D-06.
 No special actions if energy rises.
 SCF Done:  E(RHF) =  -78.7934120522     A.U. after    7 cycles
            NFock=  7  Conv=0.74D-08     -V/T= 2.0033
 ExpMin= 1.83D-01 ExpMax= 1.72D+02 ExpMxC= 1.72D+02 IAcc=3 IRadAn=         5 AccDes= 0.00D+00
 HarFok:  IExCor=  205 AccDes= 0.00D+00 IRadAn=         5 IDoV=-2 UseB2=F ITyADJ=14
 ICtDFT= 12500011 ScaDFX=  1.000000  1.000000  1.000000  1.000000
 Range of M.O.s used for correlation:     3    30
 NBasis=    30 NAE=     9 NBE=     9 NFC=     2 NFV=     0
 NROrb=     28 NOA=     7 NOB=     7 NVA=    21 NVB=    21
 Fully direct method using O(ONN) memory.
 JobTyp=1 Pass  1:  I=   3 to   9 NPSUse=  3 ParTrn=F ParDer=T DoDerP=T.
 Spin components of T(2) and E(2):
     alpha-alpha T2 =       0.6369123230D-02 E2=     -0.1747211694D-01
     alpha-beta  T2 =       0.5581773905D-01 E2=     -0.1536835876D+00
     beta-beta   T2 =       0.6369123230D-02 E2=     -0.1747211694D-01
 ANorm=    0.1033709817D+01
 E2 =    -0.1886278215D+00 EUMP2 =    -0.78982039873681D+02
          IDoAtm=11111111
          Differentiating once with respect to electric field.
                with respect to dipole field.
          Differentiating once with respect to nuclear coordinates.
 Keep R1 ints in memory in symmetry-blocked form, NReq=923085.
          There are     1 degrees of freedom in the 1st order CPHF.  IDoFFX=0 NUNeed=     1.
 LinEq1:  Iter=  0 NonCon=     1 RMS=3.97D-03 Max=2.13D-02 NDo=     1
 AX will form     1 AO Fock derivatives at one time.
 LinEq1:  Iter=  1 NonCon=     1 RMS=1.64D-03 Max=8.51D-03 NDo=     1
 LinEq1:  Iter=  2 NonCon=     1 RMS=1.13D-04 Max=6.61D-04 NDo=     1
 LinEq1:  Iter=  3 NonCon=     1 RMS=7.54D-06 Max=4.09D-05 NDo=     1
 LinEq1:  Iter=  4 NonCon=     1 RMS=4.87D-07 Max=2.53D-06 NDo=     1
 LinEq1:  Iter=  5 NonCon=     1 RMS=2.49D-08 Max=1.28D-07 NDo=     1
 LinEq1:  Iter=  6 NonCon=     1 RMS=1.87D-09 Max=1.46D-08 NDo=     1
 LinEq1:  Iter=  7 NonCon=     1 RMS=1.69D-10 Max=1.24D-09 NDo=     1
 LinEq1:  Iter=  8 NonCon=     0 RMS=1.54D-11 Max=7.16D-11 NDo=     1
 Linear equations converged to 1.000D-10 1.000D-09 after     8 iterations.
 End of Minotr F.D. properties file   721 does not exist.
 End of Minotr F.D. properties file   722 does not exist.
 End of Minotr F.D. properties file   788 does not exist.
 Calling FoFJK, ICntrl=  10002127 FMM=F ISym2X=1 I1Cent= 0 IOpClX= 0 NMat=1 NMatS=1 NMatT=0.
 ***** Axes restored to original set *****
 -------------------------------------------------------------------
 Center     Atomic                   Forces (Hartrees/Bohr)
 Number     Number              X              Y              Z
 -------------------------------------------------------------------
      1        6           0.000131292   -0.000207992   -0.000000091
      2        6          -0.000131292    0.000207992    0.000000091
      3        1           0.000145080   -0.000550339    0.000109499
      4        1           0.000282460   -0.000463521   -0.000203403
      5        1           0.000442878   -0.000362381    0.000093883
      6        1          -0.000442878    0.000362381   -0.000093883
      7        1          -0.000282460    0.000463521    0.000203403
      8        1          -0.000145080    0.000550339   -0.000109499
 -------------------------------------------------------------------
 Cartesian Forces:  Max     0.000550339 RMS     0.000298425

 GradGradGradGradGradGradGradGradGradGradGradGradGradGradGradGradGradGrad
 Berny optimization.
 Using GEDIIS/GDIIS optimizer.
 FormGI is forming the generalized inverse of G from B-inverse, IUseBI=4.
 Internal  Forces:  Max     0.001874357 RMS     0.000521541
 Search for a local minimum.
 Step number   2 out of a maximum of   38
 All quantities printed in internal units (Hartrees-Bohrs-Radians)
 Mixed Optimization -- En-DIIS/RFO-DIIS
 Update second derivatives using D2CorX and points    1    2
 DE= -1.73D-04 DEPred=-2.36D-04 R= 7.33D-01
 TightC=F SS=  1.41D+00  RLast= 4.46D-02 DXNew= 5.0454D-01 1.3366D-01
 Trust test= 7.33D-01 RLast= 4.46D-02 DXMaxT set to 3.00D-01
 ITU=  1  0
 Use linear search instead of GDIIS.
     Eigenvalues ---    0.00280   0.05488   0.05488   0.05488   0.05488
     Eigenvalues ---    0.16000   0.16000   0.16000   0.16000   0.16000
     Eigenvalues ---    0.18081   0.32560   0.33912   0.34549   0.34549
     Eigenvalues ---    0.34549   0.34549   0.34549
 RFO step:  Lambda=-5.25313971D-06 EMin= 2.80064107D-03
 Quartic linear search produced a step of -0.20625.
 Iteration  1 RMS(Cart)=  0.00385517 RMS(Int)=  0.00000505
 Iteration  2 RMS(Cart)=  0.00000541 RMS(Int)=  0.00000195
 Iteration  3 RMS(Cart)=  0.00000000 RMS(Int)=  0.00000195
 ClnCor:  largest displacement from symmetrization is 1.89D-11 for atom     6.
 Variable       Old X    -DE/DX   Delta X   Delta X   Delta X     New X
                                 (Linear)    (Quad)   (Total)
    R1        2.93563  -0.00187  -0.00652   0.00154  -0.00498   2.93065
    R2        2.06887   0.00000  -0.00098   0.00100   0.00002   2.06889
    R3        2.06887   0.00000  -0.00098   0.00100   0.00002   2.06889
    R4        2.06887   0.00000  -0.00098   0.00100   0.00002   2.06889
    R5        2.06887   0.00000  -0.00098   0.00100   0.00002   2.06889
    R6        2.06887   0.00000  -0.00098   0.00100   0.00002   2.06889
    R7        2.06887   0.00000  -0.00098   0.00100   0.00002   2.06889
    A1        1.93516  -0.00057  -0.00170  -0.00112  -0.00282   1.93234
    A2        1.93516  -0.00057  -0.00170  -0.00112  -0.00282   1.93234
    A3        1.93516  -0.00057  -0.00170  -0.00112  -0.00282   1.93234
    A4        1.88548   0.00060   0.00177   0.00118   0.00296   1.88844
    A5        1.88548   0.00060   0.00177   0.00118   0.00296   1.88844
    A6        1.88548   0.00060   0.00177   0.00118   0.00296   1.88844
    A7        1.93516  -0.00057  -0.00170  -0.00112  -0.00282   1.93234
    A8        1.93516  -0.00057  -0.00170  -0.00112  -0.00282   1.93234
    A9        1.93516  -0.00057  -0.00170  -0.00112  -0.00282   1.93234
   A10        1.88548   0.00060   0.00177   0.00118   0.00296   1.88844
   A11        1.88548   0.00060   0.00177   0.00118   0.00296   1.88844
   A12        1.88548   0.00060   0.00177   0.00118   0.00296   1.88844
    D1        1.04720   0.00000   0.00000   0.00000   0.00000   1.04720
    D2       -1.04720   0.00000   0.00000   0.00000   0.00000  -1.04720
    D3        3.14159   0.00000   0.00000   0.00000   0.00000   3.14159
    D4       -1.04720   0.00000   0.00000   0.00000   0.00000  -1.04720
    D5        3.14159   0.00000   0.00000   0.00000   0.00000   3.14159
    D6        1.04720   0.00000   0.00000   0.00000   0.00000   1.04720
    D7        3.14159   0.00000   0.00000   0.00000   0.00000   3.14159
    D8        1.04720   0.00000   0.00000   0.00000   0.00000   1.04720
    D9       -1.04720   0.00000   0.00000   0.00000   0.00000  -1.04720
         Item               Value     Threshold  Converged?
 Maximum Force            0.001874     0.000450     NO 
 RMS     Force            0.000522     0.000300     NO 
 Maximum Displacement     0.007653     0.001800     NO 
 RMS     Displacement     0.003859     0.001200     NO 
 Predicted change in Energy=-1.443784D-05
 GradGradGradGradGradGradGradGradGradGradGradGradGradGradGradGradGradGrad

                          Input orientation:                          
 ---------------------------------------------------------------------
 Center     Atomic      Atomic             Coordinates (Angstroms)
 Number     Number       Type             X           Y           Z
 ---------------------------------------------------------------------
      1          6           0       -1.773617    1.611039    0.000000
      2          6           0       -0.944563    0.300411    0.000000
      3          1           0       -2.710185    1.476828    0.550850
      4          1           0       -2.019025    1.914030   -1.023025
      5          1           0       -1.212702    2.424079    0.472175
      6          1           0       -1.505478   -0.512629   -0.472175
      7          1           0       -0.699155   -0.002580    1.023025
      8          1           0       -0.007995    0.434622   -0.550850
 ---------------------------------------------------------------------
                    Distance matrix (angstroms):
                    1          2          3          4          5
     1  C    0.000000
     2  C    1.550832   0.000000
     3  H    1.094810   2.191989   0.000000
     4  H    1.094810   2.191989   1.773677   0.000000
     5  H    1.094810   2.191989   1.773677   1.773677   0.000000
     6  H    2.191989   1.094810   2.540835   2.540835   3.098672
     7  H    2.191989   1.094810   2.540835   3.098672   2.540835
     8  H    2.191989   1.094810   3.098672   2.540835   2.540835
                    6          7          8
     6  H    0.000000
     7  H    1.773677   0.000000
     8  H    1.773677   1.773677   0.000000
 Stoichiometry    C2H6
 Framework group  CI[X(C2H6)]
 Deg. of freedom     9
 Full point group                 CI      NOp   2
 Largest Abelian subgroup         CI      NOp   2
 Largest concise Abelian subgroup CI      NOp   2
                         Standard orientation:                         
 ---------------------------------------------------------------------
 Center     Atomic      Atomic             Coordinates (Angstroms)
 Number     Number       Type             X           Y           Z
 ---------------------------------------------------------------------
      1          6           0       -0.414527    0.655314    0.000000
      2          6           0        0.414527   -0.655314    0.000000
      3          1           0       -1.351095    0.521103    0.550850
      4          1           0       -0.659935    0.958305   -1.023025
      5          1           0        0.146388    1.468354    0.472175
      6          1           0       -0.146388   -1.468354   -0.472175
      7          1           0        0.659935   -0.958305    1.023025
      8          1           0        1.351095   -0.521103   -0.550850
 ---------------------------------------------------------------------
 Rotational constants (GHZ):     79.6990367     19.6071162     19.6071155
 Standard basis: 3-21G (6D, 7F)
 There are    15 symmetry adapted cartesian basis functions of AG  symmetry.
 There are    15 symmetry adapted cartesian basis functions of AU  symmetry.
 There are    15 symmetry adapted basis functions of AG  symmetry.
 There are    15 symmetry adapted basis functions of AU  symmetry.
    30 basis functions,    48 primitive gaussians,    30 cartesian basis functions
     9 alpha electrons        9 beta electrons
       nuclear repulsion energy        41.9275596258 Hartrees.
 NAtoms=    8 NActive=    8 NUniq=    4 SFac= 4.00D+00 NAtFMM=   60 NAOKFM=F Big=F
 Integral buffers will be    131072 words long.
 Raffenetti 1 integral format.
 Two-electron integral symmetry is turned on.
 One-electron integrals computed using PRISM.
 NBasis=    30 RedAO= T EigKep=  1.38D-02  NBF=    15    15
 NBsUse=    30 1.00D-06 EigRej= -1.00D+00 NBFU=    15    15
 Initial guess from the checkpoint file:  "/scr/Gau-7820.chk"
 B after Tr=     0.000000    0.000000    0.000000
         Rot=    1.000000    0.000000    0.000000    0.000000 Ang=   0.00 deg.
 Initial guess orbital symmetries:
       Occupied  (AU) (AG) (AG) (AU) (AU) (AU) (AG) (AG) (AG)
       Virtual   (AG) (AG) (AG) (AG) (AG) (AG) (AG) (AG) (AG) (AG)
                 (AU) (AU) (AU) (AU) (AU) (AU) (AU) (AU) (AU) (AU)
                 (AU)
 Keep R1 ints in memory in symmetry-blocked form, NReq=940952.
 Requested convergence on RMS density matrix=1.00D-08 within 128 cycles.
 Requested convergence on MAX density matrix=1.00D-06.
 Requested convergence on             energy=1.00D-06.
 No special actions if energy rises.
 SCF Done:  E(RHF) =  -78.7934442697     A.U. after    7 cycles
            NFock=  7  Conv=0.13D-08     -V/T= 2.0032
 ExpMin= 1.83D-01 ExpMax= 1.72D+02 ExpMxC= 1.72D+02 IAcc=3 IRadAn=         5 AccDes= 0.00D+00
 HarFok:  IExCor=  205 AccDes= 0.00D+00 IRadAn=         5 IDoV=-2 UseB2=F ITyADJ=14
 ICtDFT= 12500011 ScaDFX=  1.000000  1.000000  1.000000  1.000000
 Range of M.O.s used for correlation:     3    30
 NBasis=    30 NAE=     9 NBE=     9 NFC=     2 NFV=     0
 NROrb=     28 NOA=     7 NOB=     7 NVA=    21 NVB=    21
 Fully direct method using O(ONN) memory.
 JobTyp=1 Pass  1:  I=   3 to   9 NPSUse=  3 ParTrn=F ParDer=T DoDerP=T.
 Spin components of T(2) and E(2):
     alpha-alpha T2 =       0.6368193318D-02 E2=     -0.1747680133D-01
     alpha-beta  T2 =       0.5578281698D-01 E2=     -0.1536569103D+00
     beta-beta   T2 =       0.6368193318D-02 E2=     -0.1747680133D-01
 ANorm=    0.1033692026D+01
 E2 =    -0.1886105129D+00 EUMP2 =    -0.78982054782577D+02
          IDoAtm=11111111
          Differentiating once with respect to electric field.
                with respect to dipole field.
          Differentiating once with respect to nuclear coordinates.
 Keep R1 ints in memory in symmetry-blocked form, NReq=923085.
          There are     1 degrees of freedom in the 1st order CPHF.  IDoFFX=0 NUNeed=     1.
 LinEq1:  Iter=  0 NonCon=     1 RMS=3.96D-03 Max=2.26D-02 NDo=     1
 AX will form     1 AO Fock derivatives at one time.
 LinEq1:  Iter=  1 NonCon=     1 RMS=1.64D-03 Max=1.08D-02 NDo=     1
 LinEq1:  Iter=  2 NonCon=     1 RMS=1.13D-04 Max=6.60D-04 NDo=     1
 LinEq1:  Iter=  3 NonCon=     1 RMS=7.55D-06 Max=4.11D-05 NDo=     1
 LinEq1:  Iter=  4 NonCon=     1 RMS=4.87D-07 Max=2.50D-06 NDo=     1
 LinEq1:  Iter=  5 NonCon=     1 RMS=2.50D-08 Max=1.28D-07 NDo=     1
 LinEq1:  Iter=  6 NonCon=     1 RMS=1.91D-09 Max=1.56D-08 NDo=     1
 LinEq1:  Iter=  7 NonCon=     1 RMS=1.76D-10 Max=1.28D-09 NDo=     1
 LinEq1:  Iter=  8 NonCon=     0 RMS=1.58D-11 Max=7.11D-11 NDo=     1
 Linear equations converged to 1.000D-10 1.000D-09 after     8 iterations.
 End of Minotr F.D. properties file   721 does not exist.
 End of Minotr F.D. properties file   722 does not exist.
 End of Minotr F.D. properties file   788 does not exist.
 Calling FoFJK, ICntrl=  10002127 FMM=F ISym2X=1 I1Cent= 0 IOpClX= 0 NMat=1 NMatS=1 NMatT=0.
 ***** Axes restored to original set *****
 -------------------------------------------------------------------
 Center     Atomic                   Forces (Hartrees/Bohr)
 Number     Number              X              Y              Z
 -------------------------------------------------------------------
      1        6          -0.000144055    0.000227771    0.000000013
      2        6           0.000144055   -0.000227771   -0.000000013
      3        1           0.000057102   -0.000015542   -0.000025500
      4        1           0.000025102   -0.000035785    0.000047328
      5        1          -0.000012191   -0.000059357   -0.000021830
      6        1           0.000012191    0.000059357    0.000021830
      7        1          -0.000025102    0.000035785   -0.000047328
      8        1          -0.000057102    0.000015542    0.000025500
 -------------------------------------------------------------------
 Cartesian Forces:  Max     0.000227771 RMS     0.000084204

 GradGradGradGradGradGradGradGradGradGradGradGradGradGradGradGradGradGrad
 Berny optimization.
 Using GEDIIS/GDIIS optimizer.
 FormGI is forming the generalized inverse of G from B-inverse, IUseBI=4.
 Internal  Forces:  Max     0.000138534 RMS     0.000041289
 Search for a local minimum.
 Step number   3 out of a maximum of   38
 All quantities printed in internal units (Hartrees-Bohrs-Radians)
 Mixed Optimization -- En-DIIS/RFO-DIIS
 Swapping is turned off.
 Update second derivatives using D2CorX and points    1    2    3
 DE= -1.49D-05 DEPred=-1.44D-05 R= 1.03D+00
 TightC=F SS=  1.41D+00  RLast= 1.12D-02 DXNew= 5.0454D-01 3.3544D-02
 Trust test= 1.03D+00 RLast= 1.12D-02 DXMaxT set to 3.00D-01
 ITU=  1  1  0
     Eigenvalues ---    0.00280   0.05518   0.05518   0.05518   0.05518
     Eigenvalues ---    0.16000   0.16000   0.16000   0.16000   0.16000
     Eigenvalues ---    0.16707   0.32526   0.34549   0.34549   0.34549
     Eigenvalues ---    0.34549   0.34549   0.35518
 En-DIIS/RFO-DIIS IScMMF=        0 using points:     3    2
 RFO step:  Lambda=-9.01331090D-08.
 DidBck=F Rises=F RFO-DIIS coefs:    1.00493   -0.00493
 Iteration  1 RMS(Cart)=  0.00009456 RMS(Int)=  0.00000003
 Iteration  2 RMS(Cart)=  0.00000001 RMS(Int)=  0.00000002
 ClnCor:  largest displacement from symmetrization is 1.11D-08 for atom     6.
 Variable       Old X    -DE/DX   Delta X   Delta X   Delta X     New X
                                 (Linear)    (Quad)   (Total)
    R1        2.93065   0.00014  -0.00002   0.00049   0.00047   2.93112
    R2        2.06889  -0.00006   0.00000  -0.00017  -0.00017   2.06872
    R3        2.06889  -0.00006   0.00000  -0.00017  -0.00017   2.06872
    R4        2.06889  -0.00006   0.00000  -0.00017  -0.00017   2.06872
    R5        2.06889  -0.00006   0.00000  -0.00017  -0.00017   2.06872
    R6        2.06889  -0.00006   0.00000  -0.00017  -0.00017   2.06872
    R7        2.06889  -0.00006   0.00000  -0.00017  -0.00017   2.06872
    A1        1.93234  -0.00002  -0.00001  -0.00015  -0.00017   1.93217
    A2        1.93234  -0.00002  -0.00001  -0.00015  -0.00017   1.93217
    A3        1.93234  -0.00002  -0.00001  -0.00015  -0.00017   1.93217
    A4        1.88844   0.00002   0.00001   0.00016   0.00017   1.88861
    A5        1.88844   0.00002   0.00001   0.00016   0.00017   1.88861
    A6        1.88844   0.00002   0.00001   0.00016   0.00017   1.88861
    A7        1.93234  -0.00002  -0.00001  -0.00015  -0.00017   1.93217
    A8        1.93234  -0.00002  -0.00001  -0.00015  -0.00017   1.93217
    A9        1.93234  -0.00002  -0.00001  -0.00015  -0.00017   1.93217
   A10        1.88844   0.00002   0.00001   0.00016   0.00017   1.88861
   A11        1.88844   0.00002   0.00001   0.00016   0.00017   1.88861
   A12        1.88844   0.00002   0.00001   0.00016   0.00017   1.88861
    D1        1.04720   0.00000   0.00000   0.00000   0.00000   1.04720
    D2       -1.04720   0.00000   0.00000   0.00000   0.00000  -1.04720
    D3        3.14159   0.00000   0.00000   0.00000   0.00000   3.14159
    D4       -1.04720   0.00000   0.00000   0.00000   0.00000  -1.04720
    D5        3.14159   0.00000   0.00000   0.00000   0.00000   3.14159
    D6        1.04720   0.00000   0.00000   0.00000   0.00000   1.04720
    D7        3.14159   0.00000   0.00000   0.00000   0.00000   3.14159
    D8        1.04720   0.00000   0.00000   0.00000   0.00000   1.04720
    D9       -1.04720   0.00000   0.00000   0.00000   0.00000  -1.04720
         Item               Value     Threshold  Converged?
 Maximum Force            0.000139     0.000450     YES
 RMS     Force            0.000041     0.000300     YES
 Maximum Displacement     0.000198     0.001800     YES
 RMS     Displacement     0.000095     0.001200     YES
 Predicted change in Energy=-8.789819D-08
 Optimization completed.
    -- Stationary point found.
                           ----------------------------
                           !   Optimized Parameters   !
                           ! (Angstroms and Degrees)  !
 --------------------------                            --------------------------
 ! Name  Definition              Value          Derivative Info.                !
 --------------------------------------------------------------------------------
 ! R1    R(1,2)                  1.5508         -DE/DX =    0.0001              !
 ! R2    R(1,3)                  1.0948         -DE/DX =   -0.0001              !
 ! R3    R(1,4)                  1.0948         -DE/DX =   -0.0001              !
 ! R4    R(1,5)                  1.0948         -DE/DX =   -0.0001              !
 ! R5    R(2,6)                  1.0948         -DE/DX =   -0.0001              !
 ! R6    R(2,7)                  1.0948         -DE/DX =   -0.0001              !
 ! R7    R(2,8)                  1.0948         -DE/DX =   -0.0001              !
 ! A1    A(2,1,3)              110.7149         -DE/DX =    0.0                 !
 ! A2    A(2,1,4)              110.7149         -DE/DX =    0.0                 !
 ! A3    A(2,1,5)              110.7148         -DE/DX =    0.0                 !
 ! A4    A(3,1,4)              108.1995         -DE/DX =    0.0                 !
 ! A5    A(3,1,5)              108.1995         -DE/DX =    0.0                 !
 ! A6    A(4,1,5)              108.1995         -DE/DX =    0.0                 !
 ! A7    A(1,2,6)              110.7148         -DE/DX =    0.0                 !
 ! A8    A(1,2,7)              110.7149         -DE/DX =    0.0                 !
 ! A9    A(1,2,8)              110.7149         -DE/DX =    0.0                 !
 ! A10   A(6,2,7)              108.1995         -DE/DX =    0.0                 !
 ! A11   A(6,2,8)              108.1995         -DE/DX =    0.0                 !
 ! A12   A(7,2,8)              108.1995         -DE/DX =    0.0                 !
 ! D1    D(3,1,2,6)             60.0            -DE/DX =    0.0                 !
 ! D2    D(3,1,2,7)            -60.0            -DE/DX =    0.0                 !
 ! D3    D(3,1,2,8)            180.0            -DE/DX =    0.0                 !
 ! D4    D(4,1,2,6)            -60.0            -DE/DX =    0.0                 !
 ! D5    D(4,1,2,7)            180.0            -DE/DX =    0.0                 !
 ! D6    D(4,1,2,8)             60.0            -DE/DX =    0.0                 !
 ! D7    D(5,1,2,6)            180.0            -DE/DX =    0.0                 !
 ! D8    D(5,1,2,7)             60.0            -DE/DX =    0.0                 !
 ! D9    D(5,1,2,8)            -60.0            -DE/DX =    0.0                 !
 --------------------------------------------------------------------------------
 GradGradGradGradGradGradGradGradGradGradGradGradGradGradGradGradGradGrad

                          Input orientation:                          
 ---------------------------------------------------------------------
 Center     Atomic      Atomic             Coordinates (Angstroms)
 Number     Number       Type             X           Y           Z
 ---------------------------------------------------------------------
      1          6           0       -1.773617    1.611039    0.000000
      2          6           0       -0.944563    0.300411    0.000000
      3          1           0       -2.710185    1.476828    0.550850
      4          1           0       -2.019025    1.914030   -1.023025
      5          1           0       -1.212702    2.424079    0.472175
      6          1           0       -1.505478   -0.512629   -0.472175
      7          1           0       -0.699155   -0.002580    1.023025
      8          1           0       -0.007995    0.434622   -0.550850
 ---------------------------------------------------------------------
                    Distance matrix (angstroms):
                    1          2          3          4          5
     1  C    0.000000
     2  C    1.550832   0.000000
     3  H    1.094810   2.191989   0.000000
     4  H    1.094810   2.191989   1.773677   0.000000
     5  H    1.094810   2.191989   1.773677   1.773677   0.000000
     6  H    2.191989   1.094810   2.540835   2.540835   3.098672
     7  H    2.191989   1.094810   2.540835   3.098672   2.540835
     8  H    2.191989   1.094810   3.098672   2.540835   2.540835
                    6          7          8
     6  H    0.000000
     7  H    1.773677   0.000000
     8  H    1.773677   1.773677   0.000000
 Stoichiometry    C2H6
 Framework group  CI[X(C2H6)]
 Deg. of freedom     9
 Full point group                 CI      NOp   2
 Largest Abelian subgroup         CI      NOp   2
 Largest concise Abelian subgroup CI      NOp   2
                         Standard orientation:                         
 ---------------------------------------------------------------------
 Center     Atomic      Atomic             Coordinates (Angstroms)
 Number     Number       Type             X           Y           Z
 ---------------------------------------------------------------------
      1          6           0       -0.414527    0.655314    0.000000
      2          6           0        0.414527   -0.655314    0.000000
      3          1           0       -1.351095    0.521103    0.550850
      4          1           0       -0.659935    0.958305   -1.023025
      5          1           0        0.146388    1.468354    0.472175
      6          1           0       -0.146388   -1.468354   -0.472175
      7          1           0        0.659935   -0.958305    1.023025
      8          1           0        1.351095   -0.521103   -0.550850
 ---------------------------------------------------------------------
 Rotational constants (GHZ):     79.6990367     19.6071162     19.6071155

 **********************************************************************

            Population analysis using the SCF density.

 **********************************************************************

 Orbital symmetries:
       Occupied  (AU) (AG) (AG) (AU) (AU) (AU) (AG) (AG) (AG)
       Virtual   (AG) (AU) (AU) (AU) (AG) (AG) (AU) (AU) (AU) (AG)
                 (AU) (AG) (AG) (AG) (AG) (AG) (AU) (AU) (AU) (AG)
                 (AU)
 The electronic state is 1-AG.
 Alpha  occ. eigenvalues --  -11.15692 -11.15671  -1.01439  -0.84226  -0.59587
 Alpha  occ. eigenvalues --   -0.59587  -0.50038  -0.48498  -0.48498
 Alpha virt. eigenvalues --    0.27699   0.33645   0.33645   0.33916   0.36819
 Alpha virt. eigenvalues --    0.36819   0.42049   0.90925   0.90925   0.98038
 Alpha virt. eigenvalues --    1.06591   1.09251   1.09251   1.27720   1.35806
 Alpha virt. eigenvalues --    1.35806   1.36366   1.36366   1.43721   1.93466
 Alpha virt. eigenvalues --    2.29132
          Condensed to atoms (all electrons):
               1          2          3          4          5          6
     1  C    5.343202   0.245043   0.377178   0.377178   0.377178  -0.041671
     2  C    0.245043   5.343202  -0.041671  -0.041671  -0.041671   0.377178
     3  H    0.377178  -0.041671   0.520214  -0.026686  -0.026686  -0.001677
     4  H    0.377178  -0.041671  -0.026686   0.520214  -0.026686  -0.001677
     5  H    0.377178  -0.041671  -0.026686  -0.026686   0.520214   0.002750
     6  H   -0.041671   0.377178  -0.001677  -0.001677   0.002750   0.520214
     7  H   -0.041671   0.377178  -0.001677   0.002750  -0.001677  -0.026686
     8  H   -0.041671   0.377178   0.002750  -0.001677  -0.001677  -0.026686
               7          8
     1  C   -0.041671  -0.041671
     2  C    0.377178   0.377178
     3  H   -0.001677   0.002750
     4  H    0.002750  -0.001677
     5  H   -0.001677  -0.001677
     6  H   -0.026686  -0.026686
     7  H    0.520214  -0.026686
     8  H   -0.026686   0.520214
 Mulliken charges:
               1
     1  C   -0.594765
     2  C   -0.594765
     3  H    0.198255
     4  H    0.198255
     5  H    0.198255
     6  H    0.198255
     7  H    0.198255
     8  H    0.198255
 Sum of Mulliken charges =   0.00000
 Mulliken charges with hydrogens summed into heavy atoms:
               1
     1  C    0.000000
     2  C    0.000000
 Electronic spatial extent (au):  <R**2>=            111.1930
 Charge=              0.0000 electrons
 Dipole moment (field-independent basis, Debye):
    X=              0.0000    Y=              0.0000    Z=              0.0000  Tot=              0.0000
 Quadrupole moment (field-independent basis, Debye-Ang):
   XX=            -15.2177   YY=            -15.4288   ZZ=            -15.0768
   XY=              0.2227   XZ=              0.0000   YZ=              0.0000
 Traceless Quadrupole moment (field-independent basis, Debye-Ang):
   XX=              0.0234   YY=             -0.1877   ZZ=              0.1643
   XY=              0.2227   XZ=              0.0000   YZ=              0.0000
 Octapole moment (field-independent basis, Debye-Ang**2):
  XXX=              0.0000  YYY=              0.0000  ZZZ=              0.0000  XYY=              0.0000
  XXY=              0.0000  XXZ=              0.0000  XZZ=              0.0000  YZZ=              0.0000
  YYZ=              0.0000  XYZ=              0.0000
 Hexadecapole moment (field-independent basis, Debye-Ang**3):
 XXXX=            -45.8395 YYYY=            -73.8611 ZZZZ=            -28.2197 XXXY=             14.2011
 XXXZ=             -1.6755 YYYX=             15.8050 YYYZ=              1.0598 ZZZX=              0.7820
 ZZZY=             -1.2362 XXYY=            -20.6555 XXZZ=            -12.0200 YYZZ=            -16.5573
 XXYZ=              0.1763 YYXZ=              0.8935 ZZXY=              4.3274
 N-N= 4.192755962577D+01 E-N=-2.663157470331D+02  KE= 7.853851614624D+01
 Symmetry AG   KE= 4.072017807326D+01
 Symmetry AU   KE= 3.781833807298D+01
 1\1\GINC-N0297\FOpt\RMP2-FC\3-21G\C2H6\TAIYUPAN\23-Feb-2017\0\\#n MP2/
 3-21G Opt\\CH3_MP2/3-21G\\0,1\C,-1.7736171454,1.6110394634,0.000000133
 7\C,-0.9445628546,0.3004105366,-0.0000001337\H,-2.7101851016,1.4768281
 696,0.5508504146\H,-2.0190254414,1.9140299592,-1.0230246543\H,-1.21270
 20998,2.4240791224,0.4721748769\H,-1.5054779002,-0.5126291224,-0.47217
 48769\H,-0.6991545586,-0.0025799592,1.0230246543\H,-0.0079948984,0.434
 6218304,-0.5508504146\\Version=ES64L-G09RevE.01\State=1-AG\HF=-78.7934
 443\MP2=-78.9820548\RMSD=1.276e-09\RMSF=8.420e-05\Dipole=0.,0.,0.\PG=C
 I [X(C2H6)]\\@


 ALTHOUGH J.J. COULD DIAGNOSE THE FAULTS OF AN
 APPARATUS WITH UNCANNY ACCURACY, IT WAS JUST AS
 WELL NOT TO LET HIM HANDLE IT.
   -- GEORGE THOMPSON, ABOUT HIS FATHER
 Job cpu time:       0 days  0 hours  0 minutes 27.9 seconds.
 File lengths (MBytes):  RWF=      5 Int=      0 D2E=      0 Chk=      1 Scr=      1
 Normal termination of Gaussian 09 at Thu Feb 23 18:25:39 2017.
