 Entering Gaussian System, Link 0=g09
 Input=CH3_B_3G.com
 Output=CH3_B_3G.log
 Initial command:
 /sw/contrib/gaussian/g09/E01/g09/l1.exe "/scr/Gau-24211.inp" -scrdir="/scr/"
 Entering Link 1 = /sw/contrib/gaussian/g09/E01/g09/l1.exe PID=     24212.
  
 Copyright (c) 1988,1990,1992,1993,1995,1998,2003,2009,2015,
            Gaussian, Inc.  All Rights Reserved.
  
 This is part of the Gaussian(R) 09 program.  It is based on
 the Gaussian(R) 03 system (copyright 2003, Gaussian, Inc.),
 the Gaussian(R) 98 system (copyright 1998, Gaussian, Inc.),
 the Gaussian(R) 94 system (copyright 1995, Gaussian, Inc.),
 the Gaussian 92(TM) system (copyright 1992, Gaussian, Inc.),
 the Gaussian 90(TM) system (copyright 1990, Gaussian, Inc.),
 the Gaussian 88(TM) system (copyright 1988, Gaussian, Inc.),
 the Gaussian 86(TM) system (copyright 1986, Carnegie Mellon
 University), and the Gaussian 82(TM) system (copyright 1983,
 Carnegie Mellon University). Gaussian is a federally registered
 trademark of Gaussian, Inc.
  
 This software contains proprietary and confidential information,
 including trade secrets, belonging to Gaussian, Inc.
  
 This software is provided under written license and may be
 used, copied, transmitted, or stored only in accord with that
 written license.
  
 The following legend is applicable only to US Government
 contracts under FAR:
  
                    RESTRICTED RIGHTS LEGEND
  
 Use, reproduction and disclosure by the US Government is
 subject to restrictions as set forth in subparagraphs (a)
 and (c) of the Commercial Computer Software - Restricted
 Rights clause in FAR 52.227-19.
  
 Gaussian, Inc.
 340 Quinnipiac St., Bldg. 40, Wallingford CT 06492
  
  
 ---------------------------------------------------------------
 Warning -- This program may not be used in any manner that
 competes with the business of Gaussian, Inc. or will provide
 assistance to any competitor of Gaussian, Inc.  The licensee
 of this program is prohibited from giving any competitor of
 Gaussian, Inc. access to this program.  By using this program,
 the user acknowledges that Gaussian, Inc. is engaged in the
 business of creating and licensing software in the field of
 computational chemistry and represents and warrants to the
 licensee that it is not a competitor of Gaussian, Inc. and that
 it will not use this program in any manner prohibited above.
 ---------------------------------------------------------------
  

 Cite this work as:
 Gaussian 09, Revision E.01,
 M. J. Frisch, G. W. Trucks, H. B. Schlegel, G. E. Scuseria, 
 M. A. Robb, J. R. Cheeseman, G. Scalmani, V. Barone, B. Mennucci, 
 G. A. Petersson, H. Nakatsuji, M. Caricato, X. Li, H. P. Hratchian, 
 A. F. Izmaylov, J. Bloino, G. Zheng, J. L. Sonnenberg, M. Hada, 
 M. Ehara, K. Toyota, R. Fukuda, J. Hasegawa, M. Ishida, T. Nakajima, 
 Y. Honda, O. Kitao, H. Nakai, T. Vreven, J. A. Montgomery, Jr., 
 J. E. Peralta, F. Ogliaro, M. Bearpark, J. J. Heyd, E. Brothers, 
 K. N. Kudin, V. N. Staroverov, T. Keith, R. Kobayashi, J. Normand, 
 K. Raghavachari, A. Rendell, J. C. Burant, S. S. Iyengar, J. Tomasi, 
 M. Cossi, N. Rega, J. M. Millam, M. Klene, J. E. Knox, J. B. Cross, 
 V. Bakken, C. Adamo, J. Jaramillo, R. Gomperts, R. E. Stratmann, 
 O. Yazyev, A. J. Austin, R. Cammi, C. Pomelli, J. W. Ochterski, 
 R. L. Martin, K. Morokuma, V. G. Zakrzewski, G. A. Voth, 
 P. Salvador, J. J. Dannenberg, S. Dapprich, A. D. Daniels, 
 O. Farkas, J. B. Foresman, J. V. Ortiz, J. Cioslowski, 
 and D. J. Fox, Gaussian, Inc., Wallingford CT, 2013.
 
 ******************************************
 Gaussian 09:  ES64L-G09RevE.01 30-Nov-2015
                23-Feb-2017 
 ******************************************
 %NProcShared=8
 Will use up to    8 processors via shared memory.
 ------------------
 #n B3LYP/3-21G Opt
 ------------------
 1/14=-1,18=20,19=15,26=3,38=1/1,3;
 2/9=110,12=2,17=6,18=5,40=1/2;
 3/5=5,11=2,16=1,25=1,30=1,71=1,74=-5/1,2,3;
 4//1;
 5/5=2,38=5/2;
 6/7=2,8=2,9=2,10=2,28=1/1;
 7//1,2,3,16;
 1/14=-1,18=20,19=15,26=3/3(2);
 2/9=110/2;
 99//99;
 2/9=110/2;
 3/5=5,11=2,16=1,25=1,30=1,71=1,74=-5/1,2,3;
 4/5=5,16=3,69=1/1;
 5/5=2,38=5/2;
 7//1,2,3,16;
 1/14=-1,18=20,19=15,26=3/3(-5);
 2/9=110/2;
 6/7=2,8=2,9=2,10=2,19=2,28=1/1;
 99/9=1/99;
 ---------------
 CH3_B3LYP/3-21G
 ---------------
 Symbolic Z-matrix:
 Charge =  0 Multiplicity = 1
 C                    -1.76985   1.60508   0. 
 C                    -0.94833   0.30637   0. 
 H                    -2.70278   1.46556   0.5507 
 H                    -2.01181   1.90264  -1.02275 
 H                    -1.2057    2.41255   0.47205 
 H                    -1.51248  -0.5011   -0.47205 
 H                    -0.70637   0.00881   1.02275 
 H                    -0.0154    0.44589  -0.5507 
 

 GradGradGradGradGradGradGradGradGradGradGradGradGradGradGradGradGradGrad
 Berny optimization.
 Initialization pass.
                           ----------------------------
                           !    Initial Parameters    !
                           ! (Angstroms and Degrees)  !
 --------------------------                            --------------------------
 ! Name  Definition              Value          Derivative Info.                !
 --------------------------------------------------------------------------------
 ! R1    R(1,2)                  1.5367         estimate D2E/DX2                !
 ! R2    R(1,3)                  1.0923         estimate D2E/DX2                !
 ! R3    R(1,4)                  1.0923         estimate D2E/DX2                !
 ! R4    R(1,5)                  1.0923         estimate D2E/DX2                !
 ! R5    R(2,6)                  1.0923         estimate D2E/DX2                !
 ! R6    R(2,7)                  1.0923         estimate D2E/DX2                !
 ! R7    R(2,8)                  1.0923         estimate D2E/DX2                !
 ! A1    A(2,1,3)              110.4046         estimate D2E/DX2                !
 ! A2    A(2,1,4)              110.4044         estimate D2E/DX2                !
 ! A3    A(2,1,5)              110.404          estimate D2E/DX2                !
 ! A4    A(3,1,4)              108.5221         estimate D2E/DX2                !
 ! A5    A(3,1,5)              108.5221         estimate D2E/DX2                !
 ! A6    A(4,1,5)              108.5224         estimate D2E/DX2                !
 ! A7    A(1,2,6)              110.404          estimate D2E/DX2                !
 ! A8    A(1,2,7)              110.4044         estimate D2E/DX2                !
 ! A9    A(1,2,8)              110.4046         estimate D2E/DX2                !
 ! A10   A(6,2,7)              108.5224         estimate D2E/DX2                !
 ! A11   A(6,2,8)              108.5221         estimate D2E/DX2                !
 ! A12   A(7,2,8)              108.5221         estimate D2E/DX2                !
 ! D1    D(3,1,2,6)             60.0001         estimate D2E/DX2                !
 ! D2    D(3,1,2,7)            -59.9999         estimate D2E/DX2                !
 ! D3    D(3,1,2,8)            180.0            estimate D2E/DX2                !
 ! D4    D(4,1,2,6)            -59.9999         estimate D2E/DX2                !
 ! D5    D(4,1,2,7)            180.0            estimate D2E/DX2                !
 ! D6    D(4,1,2,8)             59.9999         estimate D2E/DX2                !
 ! D7    D(5,1,2,6)           -180.0            estimate D2E/DX2                !
 ! D8    D(5,1,2,7)             59.9999         estimate D2E/DX2                !
 ! D9    D(5,1,2,8)            -60.0001         estimate D2E/DX2                !
 --------------------------------------------------------------------------------
 Trust Radius=3.00D-01 FncErr=1.00D-07 GrdErr=1.00D-06
 Number of steps in this run=     38 maximum allowed number of steps=    100.
 GradGradGradGradGradGradGradGradGradGradGradGradGradGradGradGradGradGrad

                          Input orientation:                          
 ---------------------------------------------------------------------
 Center     Atomic      Atomic             Coordinates (Angstroms)
 Number     Number       Type             X           Y           Z
 ---------------------------------------------------------------------
      1          6           0       -1.769850    1.605080    0.000000
      2          6           0       -0.948330    0.306370    0.000000
      3          1           0       -2.702780    1.465560    0.550700
      4          1           0       -2.011810    1.902640   -1.022750
      5          1           0       -1.205700    2.412550    0.472050
      6          1           0       -1.512480   -0.501100   -0.472050
      7          1           0       -0.706370    0.008810    1.022750
      8          1           0       -0.015400    0.445890   -0.550700
 ---------------------------------------------------------------------
                    Distance matrix (angstroms):
                    1          2          3          4          5
     1  C    0.000000
     2  C    1.536731   0.000000
     3  H    1.092289   2.173726   0.000000
     4  H    1.092293   2.173726   1.773196   0.000000
     5  H    1.092293   2.173721   1.773196   1.773203   0.000000
     6  H    2.173721   1.092293   2.516065   2.516062   3.078116
     7  H    2.173726   1.092293   2.516069   3.078122   2.516062
     8  H    2.173726   1.092289   3.078120   2.516069   2.516065
                    6          7          8
     6  H    0.000000
     7  H    1.773203   0.000000
     8  H    1.773196   1.773196   0.000000
 This structure is nearly, but not quite of a higher symmetry.
 Consider Symm=Loose if the higher symmetry is desired.
 Stoichiometry    C2H6
 Framework group  CI[X(C2H6)]
 Deg. of freedom     9
 Full point group                 CI      NOp   2
 Largest Abelian subgroup         CI      NOp   2
 Largest concise Abelian subgroup CI      NOp   2
                         Standard orientation:                         
 ---------------------------------------------------------------------
 Center     Atomic      Atomic             Coordinates (Angstroms)
 Number     Number       Type             X           Y           Z
 ---------------------------------------------------------------------
      1          6           0       -0.410760    0.649355    0.000000
      2          6           0        0.410760   -0.649355    0.000000
      3          1           0       -1.343690    0.509835    0.550700
      4          1           0       -0.652720    0.946915   -1.022750
      5          1           0        0.153390    1.456825    0.472050
      6          1           0       -0.153390   -1.456825   -0.472050
      7          1           0        0.652720   -0.946915    1.022750
      8          1           0        1.343690   -0.509835   -0.550700
 ---------------------------------------------------------------------
 Rotational constants (GHZ):     79.7420612     19.9566490     19.9566228
 Standard basis: 3-21G (6D, 7F)
 There are    15 symmetry adapted cartesian basis functions of AG  symmetry.
 There are    15 symmetry adapted cartesian basis functions of AU  symmetry.
 There are    15 symmetry adapted basis functions of AG  symmetry.
 There are    15 symmetry adapted basis functions of AU  symmetry.
    30 basis functions,    48 primitive gaussians,    30 cartesian basis functions
     9 alpha electrons        9 beta electrons
       nuclear repulsion energy        42.1696170358 Hartrees.
 NAtoms=    8 NActive=    8 NUniq=    4 SFac= 4.00D+00 NAtFMM=   60 NAOKFM=F Big=F
 Integral buffers will be    131072 words long.
 Raffenetti 2 integral format.
 Two-electron integral symmetry is turned on.
 One-electron integrals computed using PRISM.
 NBasis=    30 RedAO= T EigKep=  1.33D-02  NBF=    15    15
 NBsUse=    30 1.00D-06 EigRej= -1.00D+00 NBFU=    15    15
 ExpMin= 1.83D-01 ExpMax= 1.72D+02 ExpMxC= 1.72D+02 IAcc=1 IRadAn=         1 AccDes= 0.00D+00
 Harris functional with IExCor=  402 and IRadAn=       1 diagonalized for initial guess.
 HarFok:  IExCor=  402 AccDes= 0.00D+00 IRadAn=         1 IDoV= 1 UseB2=F ITyADJ=14
 ICtDFT=  3500011 ScaDFX=  1.000000  1.000000  1.000000  1.000000
 FoFCou: FMM=F IPFlag=           0 FMFlag=      100000 FMFlg1=           0
         NFxFlg=           0 DoJE=T BraDBF=F KetDBF=T FulRan=T
         wScrn=  0.000000 ICntrl=     500 IOpCl=  0 I1Cent=   200000004 NGrid=           0
         NMat0=    1 NMatS0=      1 NMatT0=    0 NMatD0=    1 NMtDS0=    0 NMtDT0=    0
 Petite list used in FoFCou.
 Initial guess orbital symmetries:
       Occupied  (AU) (AG) (AG) (AU) (AU) (AU) (AG) (AG) (AG)
       Virtual   (AG) (AU) (AU) (AU) (AU) (AG) (AG) (AU) (AU) (AG)
                 (AU) (AG) (AG) (AG) (AU) (AU) (AG) (AG) (AU) (AG)
                 (AU)
 The electronic state of the initial guess is 1-AG.
 Keep R1 ints in memory in symmetry-blocked form, NReq=991417.
 Requested convergence on RMS density matrix=1.00D-08 within 128 cycles.
 Requested convergence on MAX density matrix=1.00D-06.
 Requested convergence on             energy=1.00D-06.
 No special actions if energy rises.
 Integral accuracy reduced to 1.0D-05 until final iterations.
 Initial convergence to 1.0D-05 achieved.  Increase integral accuracy.
 SCF Done:  E(RB3LYP) =  -79.4004913612     A.U. after   10 cycles
            NFock= 10  Conv=0.14D-08     -V/T= 2.0094

 **********************************************************************

            Population analysis using the SCF density.

 **********************************************************************

 Orbital symmetries:
       Occupied  (AU) (AG) (AG) (AU) (AU) (AU) (AG) (AG) (AG)
       Virtual   (AG) (AU) (AU) (AU) (AG) (AG) (AU) (AU) (AU) (AG)
                 (AU) (AG) (AG) (AG) (AU) (AU) (AG) (AG) (AU) (AG)
                 (AU)
 The electronic state is 1-AG.
 Alpha  occ. eigenvalues --  -10.10495 -10.10424  -0.74999  -0.61142  -0.43399
 Alpha  occ. eigenvalues --   -0.43399  -0.36134  -0.34057  -0.34057
 Alpha virt. eigenvalues --    0.13023   0.18225   0.18226   0.18738   0.21248
 Alpha virt. eigenvalues --    0.21248   0.25176   0.69486   0.69486   0.73919
 Alpha virt. eigenvalues --    0.79090   0.84287   0.84287   0.98636   1.07092
 Alpha virt. eigenvalues --    1.07092   1.08032   1.08032   1.14406   1.68049
 Alpha virt. eigenvalues --    2.03296
          Condensed to atoms (all electrons):
               1          2          3          4          5          6
     1  C    5.295096   0.280288   0.370927   0.370928   0.370927  -0.041257
     2  C    0.280288   5.295096  -0.041256  -0.041256  -0.041257   0.370927
     3  H    0.370927  -0.041256   0.540543  -0.028438  -0.028437  -0.002475
     4  H    0.370928  -0.041256  -0.028438   0.540542  -0.028437  -0.002476
     5  H    0.370927  -0.041257  -0.028437  -0.028437   0.540541   0.003480
     6  H   -0.041257   0.370927  -0.002475  -0.002476   0.003480   0.540541
     7  H   -0.041256   0.370928  -0.002475   0.003480  -0.002476  -0.028437
     8  H   -0.041256   0.370927   0.003480  -0.002475  -0.002475  -0.028437
               7          8
     1  C   -0.041256  -0.041256
     2  C    0.370928   0.370927
     3  H   -0.002475   0.003480
     4  H    0.003480  -0.002475
     5  H   -0.002476  -0.002475
     6  H   -0.028437  -0.028437
     7  H    0.540542  -0.028438
     8  H   -0.028438   0.540543
 Mulliken charges:
               1
     1  C   -0.564397
     2  C   -0.564397
     3  H    0.188132
     4  H    0.188132
     5  H    0.188133
     6  H    0.188133
     7  H    0.188132
     8  H    0.188132
 Sum of Mulliken charges =   0.00000
 Mulliken charges with hydrogens summed into heavy atoms:
               1
     1  C    0.000000
     2  C    0.000000
 Electronic spatial extent (au):  <R**2>=            109.3144
 Charge=              0.0000 electrons
 Dipole moment (field-independent basis, Debye):
    X=              0.0000    Y=              0.0000    Z=              0.0000  Tot=              0.0000
 Quadrupole moment (field-independent basis, Debye-Ang):
   XX=            -14.8870   YY=            -15.1199   ZZ=            -14.7316
   XY=              0.2456   XZ=              0.0000   YZ=              0.0000
 Traceless Quadrupole moment (field-independent basis, Debye-Ang):
   XX=              0.0258   YY=             -0.2070   ZZ=              0.1812
   XY=              0.2456   XZ=              0.0000   YZ=              0.0000
 Octapole moment (field-independent basis, Debye-Ang**2):
  XXX=              0.0000  YYY=              0.0000  ZZZ=              0.0000  XYY=              0.0000
  XXY=              0.0000  XXZ=              0.0000  XZZ=              0.0000  YZZ=              0.0000
  YYZ=              0.0000  XYZ=              0.0000
 Hexadecapole moment (field-independent basis, Debye-Ang**3):
 XXXX=            -44.5343 YYYY=            -71.4518 ZZZZ=            -27.6390 XXXY=             13.6288
 XXXZ=             -1.5692 YYYX=             15.1844 YYYZ=              0.9926 ZZZX=              0.7323
 ZZZY=             -1.1578 XXYY=            -20.0208 XXZZ=            -11.7224 YYZZ=            -16.0644
 XXYZ=              0.1652 YYXZ=              0.8368 ZZXY=              4.1505
 N-N= 4.216961703580D+01 E-N=-2.672373085029D+02  KE= 7.865870420757D+01
 Symmetry AG   KE= 4.082878571530D+01
 Symmetry AU   KE= 3.782991849226D+01
 Calling FoFJK, ICntrl=      2127 FMM=F ISym2X=1 I1Cent= 0 IOpClX= 0 NMat=1 NMatS=1 NMatT=0.
 ***** Axes restored to original set *****
 -------------------------------------------------------------------
 Center     Atomic                   Forces (Hartrees/Bohr)
 Number     Number              X              Y              Z
 -------------------------------------------------------------------
      1        6           0.000111177   -0.000187715    0.000011525
      2        6          -0.000111177    0.000187715   -0.000011525
      3        1          -0.002126183    0.001103600    0.000768719
      4        1          -0.001163528    0.001716547   -0.001434357
      5        1          -0.000038779    0.002436965    0.000660803
      6        1           0.000038779   -0.002436965   -0.000660803
      7        1           0.001163528   -0.001716547    0.001434357
      8        1           0.002126183   -0.001103600   -0.000768719
 -------------------------------------------------------------------
 Cartesian Forces:  Max     0.002436965 RMS     0.001262006

 GradGradGradGradGradGradGradGradGradGradGradGradGradGradGradGradGradGrad
 Berny optimization.
 FormGI is forming the generalized inverse of G from B-inverse, IUseBI=4.
 Internal  Forces:  Max     0.006004149 RMS     0.001767159
 Search for a local minimum.
 Step number   1 out of a maximum of   38
 All quantities printed in internal units (Hartrees-Bohrs-Radians)
 Mixed Optimization -- RFO/linear search
 Second derivative matrix not updated -- first step.
 ITU=  0
     Eigenvalues ---    0.00280   0.05575   0.05575   0.05575   0.05575
     Eigenvalues ---    0.16000   0.16000   0.16000   0.16000   0.16000
     Eigenvalues ---    0.16000   0.28810   0.34549   0.34549   0.34549
     Eigenvalues ---    0.34549   0.34549   0.34549
 RFO step:  Lambda=-3.59781387D-04 EMin= 2.80064107D-03
 Linear search not attempted -- first point.
 Iteration  1 RMS(Cart)=  0.01407286 RMS(Int)=  0.00004218
 Iteration  2 RMS(Cart)=  0.00003510 RMS(Int)=  0.00002603
 Iteration  3 RMS(Cart)=  0.00000000 RMS(Int)=  0.00002603
 ClnCor:  largest displacement from symmetrization is 7.45D-09 for atom     8.
 Variable       Old X    -DE/DX   Delta X   Delta X   Delta X     New X
                                 (Linear)    (Quad)   (Total)
    R1        2.90400   0.00600   0.00000   0.02081   0.02081   2.92482
    R2        2.06413   0.00206   0.00000   0.00596   0.00596   2.07008
    R3        2.06413   0.00207   0.00000   0.00598   0.00598   2.07012
    R4        2.06413   0.00207   0.00000   0.00598   0.00598   2.07012
    R5        2.06413   0.00207   0.00000   0.00598   0.00598   2.07012
    R6        2.06413   0.00207   0.00000   0.00598   0.00598   2.07012
    R7        2.06413   0.00206   0.00000   0.00596   0.00596   2.07008
    A1        1.92692   0.00144   0.00000   0.00899   0.00895   1.93587
    A2        1.92692   0.00144   0.00000   0.00895   0.00891   1.93583
    A3        1.92691   0.00145   0.00000   0.00902   0.00898   1.93589
    A4        1.89407  -0.00149   0.00000  -0.00928  -0.00932   1.88475
    A5        1.89407  -0.00149   0.00000  -0.00929  -0.00933   1.88474
    A6        1.89407  -0.00149   0.00000  -0.00930  -0.00934   1.88473
    A7        1.92691   0.00145   0.00000   0.00902   0.00898   1.93589
    A8        1.92692   0.00144   0.00000   0.00895   0.00891   1.93583
    A9        1.92692   0.00144   0.00000   0.00899   0.00895   1.93587
   A10        1.89407  -0.00149   0.00000  -0.00930  -0.00934   1.88473
   A11        1.89407  -0.00149   0.00000  -0.00929  -0.00933   1.88474
   A12        1.89407  -0.00149   0.00000  -0.00928  -0.00932   1.88475
    D1        1.04720   0.00000   0.00000  -0.00003  -0.00003   1.04717
    D2       -1.04720   0.00000   0.00000  -0.00001  -0.00001  -1.04721
    D3        3.14159   0.00000   0.00000   0.00000   0.00000   3.14159
    D4       -1.04720   0.00000   0.00000  -0.00002  -0.00002  -1.04721
    D5        3.14159   0.00000   0.00000   0.00000   0.00000   3.14159
    D6        1.04720   0.00000   0.00000   0.00001   0.00001   1.04721
    D7        3.14159   0.00000   0.00000   0.00000   0.00000   3.14159
    D8        1.04720   0.00000   0.00000   0.00002   0.00002   1.04721
    D9       -1.04720   0.00000   0.00000   0.00003   0.00003  -1.04717
         Item               Value     Threshold  Converged?
 Maximum Force            0.006004     0.000450     NO 
 RMS     Force            0.001767     0.000300     NO 
 Maximum Displacement     0.025618     0.001800     NO 
 RMS     Displacement     0.014087     0.001200     NO 
 Predicted change in Energy=-1.801864D-04
 GradGradGradGradGradGradGradGradGradGradGradGradGradGradGradGradGradGrad

                          Input orientation:                          
 ---------------------------------------------------------------------
 Center     Atomic      Atomic             Coordinates (Angstroms)
 Number     Number       Type             X           Y           Z
 ---------------------------------------------------------------------
      1          6           0       -1.772790    1.609736    0.000013
      2          6           0       -0.945390    0.301714   -0.000013
      3          1           0       -2.710854    1.479117    0.550439
      4          1           0       -2.020212    1.915977   -1.022253
      5          1           0       -1.214514    2.425671    0.471825
      6          1           0       -1.503666   -0.514221   -0.471825
      7          1           0       -0.697968   -0.004527    1.022253
      8          1           0       -0.007326    0.432333   -0.550439
 ---------------------------------------------------------------------
                    Distance matrix (angstroms):
                    1          2          3          4          5
     1  C    0.000000
     2  C    1.547746   0.000000
     3  H    1.095442   2.192291   0.000000
     4  H    1.095458   2.192274   1.772341   0.000000
     5  H    1.095459   2.192318   1.772337   1.772345   0.000000
     6  H    2.192318   1.095459   2.544744   2.544731   3.101138
     7  H    2.192274   1.095458   2.544703   3.101075   2.544731
     8  H    2.192291   1.095442   3.101088   2.544703   2.544744
                    6          7          8
     6  H    0.000000
     7  H    1.772345   0.000000
     8  H    1.772337   1.772341   0.000000
 Stoichiometry    C2H6
 Framework group  CI[X(C2H6)]
 Deg. of freedom     9
 Full point group                 CI      NOp   2
 Largest Abelian subgroup         CI      NOp   2
 Largest concise Abelian subgroup CI      NOp   2
                         Standard orientation:                         
 ---------------------------------------------------------------------
 Center     Atomic      Atomic             Coordinates (Angstroms)
 Number     Number       Type             X           Y           Z
 ---------------------------------------------------------------------
      1          6           0       -0.413700    0.654011    0.000013
      2          6           0        0.413700   -0.654011   -0.000013
      3          1           0       -1.351764    0.523392    0.550439
      4          1           0       -0.661122    0.960252   -1.022253
      5          1           0        0.144576    1.469946    0.471825
      6          1           0       -0.144576   -1.469946   -0.471825
      7          1           0        0.661122   -0.960252    1.022253
      8          1           0        1.351764   -0.523392   -0.550439
 ---------------------------------------------------------------------
 Rotational constants (GHZ):     79.8192116     19.6298582     19.6298345
 Standard basis: 3-21G (6D, 7F)
 There are    15 symmetry adapted cartesian basis functions of AG  symmetry.
 There are    15 symmetry adapted cartesian basis functions of AU  symmetry.
 There are    15 symmetry adapted basis functions of AG  symmetry.
 There are    15 symmetry adapted basis functions of AU  symmetry.
    30 basis functions,    48 primitive gaussians,    30 cartesian basis functions
     9 alpha electrons        9 beta electrons
       nuclear repulsion energy        41.9396665868 Hartrees.
 NAtoms=    8 NActive=    8 NUniq=    4 SFac= 4.00D+00 NAtFMM=   60 NAOKFM=F Big=F
 Integral buffers will be    131072 words long.
 Raffenetti 2 integral format.
 Two-electron integral symmetry is turned on.
 One-electron integrals computed using PRISM.
 NBasis=    30 RedAO= T EigKep=  1.38D-02  NBF=    15    15
 NBsUse=    30 1.00D-06 EigRej= -1.00D+00 NBFU=    15    15
 Initial guess from the checkpoint file:  "/scr/Gau-24212.chk"
 B after Tr=     0.000000    0.000000    0.000000
         Rot=    1.000000   -0.000002   -0.000001    0.000001 Ang=   0.00 deg.
 Initial guess orbital symmetries:
       Occupied  (AU) (AG) (AG) (AU) (AU) (AU) (AG) (AG) (AG)
       Virtual   (AG) (AG) (AG) (AG) (AG) (AG) (AG) (AG) (AG) (AG)
                 (AU) (AU) (AU) (AU) (AU) (AU) (AU) (AU) (AU) (AU)
                 (AU)
 ExpMin= 1.83D-01 ExpMax= 1.72D+02 ExpMxC= 1.72D+02 IAcc=1 IRadAn=         1 AccDes= 0.00D+00
 Harris functional with IExCor=  402 and IRadAn=       1 diagonalized for initial guess.
 HarFok:  IExCor=  402 AccDes= 0.00D+00 IRadAn=         1 IDoV= 1 UseB2=F ITyADJ=14
 ICtDFT=  3500011 ScaDFX=  1.000000  1.000000  1.000000  1.000000
 FoFCou: FMM=F IPFlag=           0 FMFlag=      100000 FMFlg1=           0
         NFxFlg=           0 DoJE=T BraDBF=F KetDBF=T FulRan=T
         wScrn=  0.000000 ICntrl=     500 IOpCl=  0 I1Cent=   200000004 NGrid=           0
         NMat0=    1 NMatS0=      1 NMatT0=    0 NMatD0=    1 NMtDS0=    0 NMtDT0=    0
 Petite list used in FoFCou.
 Keep R1 ints in memory in symmetry-blocked form, NReq=991417.
 Requested convergence on RMS density matrix=1.00D-08 within 128 cycles.
 Requested convergence on MAX density matrix=1.00D-06.
 Requested convergence on             energy=1.00D-06.
 No special actions if energy rises.
 Integral accuracy reduced to 1.0D-05 until final iterations.
 Initial convergence to 1.0D-05 achieved.  Increase integral accuracy.
 SCF Done:  E(RB3LYP) =  -79.4006349121     A.U. after    9 cycles
            NFock=  9  Conv=0.14D-08     -V/T= 2.0100
 Calling FoFJK, ICntrl=      2127 FMM=F ISym2X=1 I1Cent= 0 IOpClX= 0 NMat=1 NMatS=1 NMatT=0.
 ***** Axes restored to original set *****
 -------------------------------------------------------------------
 Center     Atomic                   Forces (Hartrees/Bohr)
 Number     Number              X              Y              Z
 -------------------------------------------------------------------
      1        6           0.000696571   -0.001104903   -0.000001675
      2        6          -0.000696571    0.001104903    0.000001675
      3        1           0.000014134   -0.000265936    0.000080941
      4        1           0.000115613   -0.000200816   -0.000150376
      5        1           0.000233500   -0.000125772    0.000069543
      6        1          -0.000233500    0.000125772   -0.000069543
      7        1          -0.000115613    0.000200816    0.000150376
      8        1          -0.000014134    0.000265936   -0.000080941
 -------------------------------------------------------------------
 Cartesian Forces:  Max     0.001104903 RMS     0.000401557

 GradGradGradGradGradGradGradGradGradGradGradGradGradGradGradGradGradGrad
 Berny optimization.
 Using GEDIIS/GDIIS optimizer.
 FormGI is forming the generalized inverse of G from B-inverse, IUseBI=4.
 Internal  Forces:  Max     0.002001083 RMS     0.000418970
 Search for a local minimum.
 Step number   2 out of a maximum of   38
 All quantities printed in internal units (Hartrees-Bohrs-Radians)
 Mixed Optimization -- En-DIIS/RFO-DIIS
 Update second derivatives using D2CorX and points    1    2
 DE= -1.44D-04 DEPred=-1.80D-04 R= 7.97D-01
 TightC=F SS=  1.41D+00  RLast= 4.06D-02 DXNew= 5.0454D-01 1.2185D-01
 Trust test= 7.97D-01 RLast= 4.06D-02 DXMaxT set to 3.00D-01
 ITU=  1  0
 Use linear search instead of GDIIS.
     Eigenvalues ---    0.00280   0.05481   0.05481   0.05481   0.05481
     Eigenvalues ---    0.16000   0.16000   0.16000   0.16000   0.16000
     Eigenvalues ---    0.16839   0.32749   0.34511   0.34549   0.34549
     Eigenvalues ---    0.34549   0.34549   0.34550
 RFO step:  Lambda=-4.25702114D-06 EMin= 2.80064107D-03
 Quartic linear search produced a step of -0.16490.
 Iteration  1 RMS(Cart)=  0.00261569 RMS(Int)=  0.00000382
 Iteration  2 RMS(Cart)=  0.00000127 RMS(Int)=  0.00000367
 Iteration  3 RMS(Cart)=  0.00000000 RMS(Int)=  0.00000367
 ClnCor:  largest displacement from symmetrization is 7.65D-09 for atom     8.
 Variable       Old X    -DE/DX   Delta X   Delta X   Delta X     New X
                                 (Linear)    (Quad)   (Total)
    R1        2.92482  -0.00200  -0.00343  -0.00217  -0.00561   2.91921
    R2        2.07008   0.00006  -0.00098   0.00118   0.00020   2.07029
    R3        2.07012   0.00006  -0.00099   0.00118   0.00020   2.07031
    R4        2.07012   0.00006  -0.00099   0.00118   0.00020   2.07031
    R5        2.07012   0.00006  -0.00099   0.00118   0.00020   2.07031
    R6        2.07012   0.00006  -0.00099   0.00118   0.00020   2.07031
    R7        2.07008   0.00006  -0.00098   0.00118   0.00020   2.07029
    A1        1.93587  -0.00026  -0.00148   0.00015  -0.00132   1.93456
    A2        1.93583  -0.00026  -0.00147   0.00015  -0.00132   1.93451
    A3        1.93589  -0.00027  -0.00148   0.00014  -0.00133   1.93456
    A4        1.88475   0.00028   0.00154  -0.00016   0.00139   1.88613
    A5        1.88474   0.00028   0.00154  -0.00016   0.00139   1.88613
    A6        1.88473   0.00028   0.00154  -0.00015   0.00139   1.88613
    A7        1.93589  -0.00027  -0.00148   0.00014  -0.00133   1.93456
    A8        1.93583  -0.00026  -0.00147   0.00015  -0.00132   1.93451
    A9        1.93587  -0.00026  -0.00148   0.00015  -0.00132   1.93456
   A10        1.88473   0.00028   0.00154  -0.00015   0.00139   1.88613
   A11        1.88474   0.00028   0.00154  -0.00016   0.00139   1.88613
   A12        1.88475   0.00028   0.00154  -0.00016   0.00139   1.88613
    D1        1.04717   0.00000   0.00000   0.00000   0.00001   1.04718
    D2       -1.04721   0.00000   0.00000   0.00000   0.00000  -1.04720
    D3        3.14159   0.00000   0.00000   0.00000   0.00000   3.14159
    D4       -1.04721   0.00000   0.00000   0.00000   0.00000  -1.04721
    D5        3.14159   0.00000   0.00000   0.00000   0.00000   3.14159
    D6        1.04721   0.00000   0.00000   0.00000   0.00000   1.04720
    D7        3.14159   0.00000   0.00000   0.00000   0.00000   3.14159
    D8        1.04721   0.00000   0.00000   0.00000   0.00000   1.04721
    D9       -1.04717   0.00000   0.00000   0.00000  -0.00001  -1.04718
         Item               Value     Threshold  Converged?
 Maximum Force            0.002001     0.000450     NO 
 RMS     Force            0.000419     0.000300     NO 
 Maximum Displacement     0.004987     0.001800     NO 
 RMS     Displacement     0.002617     0.001200     NO 
 Predicted change in Energy=-7.756978D-06
 GradGradGradGradGradGradGradGradGradGradGradGradGradGradGradGradGradGrad

                          Input orientation:                          
 ---------------------------------------------------------------------
 Center     Atomic      Atomic             Coordinates (Angstroms)
 Number     Number       Type             X           Y           Z
 ---------------------------------------------------------------------
      1          6           0       -1.772000    1.608481    0.000011
      2          6           0       -0.946180    0.302969   -0.000011
      3          1           0       -2.709799    1.476478    0.550768
      4          1           0       -2.018743    1.913597   -1.022867
      5          1           0       -1.212555    2.423589    0.472109
      6          1           0       -1.505625   -0.512139   -0.472109
      7          1           0       -0.699437   -0.002147    1.022867
      8          1           0       -0.008381    0.434972   -0.550768
 ---------------------------------------------------------------------
                    Distance matrix (angstroms):
                    1          2          3          4          5
     1  C    0.000000
     2  C    1.544778   0.000000
     3  H    1.095548   2.188797   0.000000
     4  H    1.095563   2.188777   1.773404   0.000000
     5  H    1.095562   2.188808   1.773400   1.773410   0.000000
     6  H    2.188808   1.095562   2.539864   2.539846   3.097730
     7  H    2.188777   1.095563   2.539835   3.097688   2.539846
     8  H    2.188797   1.095548   3.097705   2.539835   2.539864
                    6          7          8
     6  H    0.000000
     7  H    1.773410   0.000000
     8  H    1.773400   1.773404   0.000000
 Stoichiometry    C2H6
 Framework group  CI[X(C2H6)]
 Deg. of freedom     9
 Full point group                 CI      NOp   2
 Largest Abelian subgroup         CI      NOp   2
 Largest concise Abelian subgroup CI      NOp   2
                         Standard orientation:                         
 ---------------------------------------------------------------------
 Center     Atomic      Atomic             Coordinates (Angstroms)
 Number     Number       Type             X           Y           Z
 ---------------------------------------------------------------------
      1          6           0       -0.412910    0.652756    0.000011
      2          6           0        0.412910   -0.652756   -0.000011
      3          1           0       -1.350709    0.520753    0.550768
      4          1           0       -0.659653    0.957872   -1.022867
      5          1           0        0.146535    1.467864    0.472109
      6          1           0       -0.146535   -1.467864   -0.472109
      7          1           0        0.659653   -0.957872    1.022867
      8          1           0        1.350709   -0.520753   -0.550768
 ---------------------------------------------------------------------
 Rotational constants (GHZ):     79.7235013     19.6992236     19.6991904
 Standard basis: 3-21G (6D, 7F)
 There are    15 symmetry adapted cartesian basis functions of AG  symmetry.
 There are    15 symmetry adapted cartesian basis functions of AU  symmetry.
 There are    15 symmetry adapted basis functions of AG  symmetry.
 There are    15 symmetry adapted basis functions of AU  symmetry.
    30 basis functions,    48 primitive gaussians,    30 cartesian basis functions
     9 alpha electrons        9 beta electrons
       nuclear repulsion energy        41.9774226926 Hartrees.
 NAtoms=    8 NActive=    8 NUniq=    4 SFac= 4.00D+00 NAtFMM=   60 NAOKFM=F Big=F
 Integral buffers will be    131072 words long.
 Raffenetti 2 integral format.
 Two-electron integral symmetry is turned on.
 One-electron integrals computed using PRISM.
 NBasis=    30 RedAO= T EigKep=  1.37D-02  NBF=    15    15
 NBsUse=    30 1.00D-06 EigRej= -1.00D+00 NBFU=    15    15
 Initial guess from the checkpoint file:  "/scr/Gau-24212.chk"
 B after Tr=     0.000000    0.000000    0.000000
         Rot=    1.000000    0.000000    0.000000   -0.000001 Ang=   0.00 deg.
 Initial guess orbital symmetries:
       Occupied  (AU) (AG) (AG) (AU) (AU) (AU) (AG) (AG) (AG)
       Virtual   (AG) (AG) (AG) (AG) (AG) (AG) (AG) (AG) (AG) (AG)
                 (AU) (AU) (AU) (AU) (AU) (AU) (AU) (AU) (AU) (AU)
                 (AU)
 Keep R1 ints in memory in symmetry-blocked form, NReq=991417.
 Requested convergence on RMS density matrix=1.00D-08 within 128 cycles.
 Requested convergence on MAX density matrix=1.00D-06.
 Requested convergence on             energy=1.00D-06.
 No special actions if energy rises.
 SCF Done:  E(RB3LYP) =  -79.4006430251     A.U. after    6 cycles
            NFock=  6  Conv=0.77D-09     -V/T= 2.0100
 Calling FoFJK, ICntrl=      2127 FMM=F ISym2X=1 I1Cent= 0 IOpClX= 0 NMat=1 NMatS=1 NMatT=0.
 ***** Axes restored to original set *****
 -------------------------------------------------------------------
 Center     Atomic                   Forces (Hartrees/Bohr)
 Number     Number              X              Y              Z
 -------------------------------------------------------------------
      1        6           0.000162730   -0.000259562   -0.000000287
      2        6          -0.000162730    0.000259562    0.000000287
      3        1          -0.000003563    0.000035960   -0.000012426
      4        1          -0.000019493    0.000027828    0.000022521
      5        1          -0.000038760    0.000018537   -0.000010374
      6        1           0.000038760   -0.000018537    0.000010374
      7        1           0.000019493   -0.000027828   -0.000022521
      8        1           0.000003563   -0.000035960    0.000012426
 -------------------------------------------------------------------
 Cartesian Forces:  Max     0.000259562 RMS     0.000090797

 GradGradGradGradGradGradGradGradGradGradGradGradGradGradGradGradGradGrad
 Berny optimization.
 Using GEDIIS/GDIIS optimizer.
 FormGI is forming the generalized inverse of G from B-inverse, IUseBI=4.
 Internal  Forces:  Max     0.000203732 RMS     0.000046899
 Search for a local minimum.
 Step number   3 out of a maximum of   38
 All quantities printed in internal units (Hartrees-Bohrs-Radians)
 Mixed Optimization -- En-DIIS/RFO-DIIS
 Swapping is turned off.
 Update second derivatives using D2CorX and points    1    2    3
 DE= -8.11D-06 DEPred=-7.76D-06 R= 1.05D+00
 TightC=F SS=  1.41D+00  RLast= 7.33D-03 DXNew= 5.0454D-01 2.1992D-02
 Trust test= 1.05D+00 RLast= 7.33D-03 DXMaxT set to 3.00D-01
 ITU=  1  1  0
     Eigenvalues ---    0.00280   0.05495   0.05495   0.05495   0.05495
     Eigenvalues ---    0.16000   0.16000   0.16000   0.16000   0.16000
     Eigenvalues ---    0.17850   0.30233   0.33378   0.34549   0.34549
     Eigenvalues ---    0.34549   0.34549   0.34549
 En-DIIS/RFO-DIIS IScMMF=        0 using points:     3    2
 RFO step:  Lambda=-1.31726432D-07.
 DidBck=F Rises=F RFO-DIIS coefs:    1.03109   -0.03109
 Iteration  1 RMS(Cart)=  0.00014360 RMS(Int)=  0.00000005
 Iteration  2 RMS(Cart)=  0.00000004 RMS(Int)=  0.00000004
 ClnCor:  largest displacement from symmetrization is 9.71D-09 for atom     6.
 Variable       Old X    -DE/DX   Delta X   Delta X   Delta X     New X
                                 (Linear)    (Quad)   (Total)
    R1        2.91921  -0.00020  -0.00017  -0.00062  -0.00080   2.91841
    R2        2.07029  -0.00001   0.00001  -0.00002  -0.00001   2.07027
    R3        2.07031  -0.00001   0.00001  -0.00002  -0.00001   2.07030
    R4        2.07031  -0.00001   0.00001  -0.00002  -0.00001   2.07030
    R5        2.07031  -0.00001   0.00001  -0.00002  -0.00001   2.07030
    R6        2.07031  -0.00001   0.00001  -0.00002  -0.00001   2.07030
    R7        2.07029  -0.00001   0.00001  -0.00002  -0.00001   2.07027
    A1        1.93456   0.00004  -0.00004   0.00029   0.00025   1.93480
    A2        1.93451   0.00004  -0.00004   0.00029   0.00025   1.93476
    A3        1.93456   0.00004  -0.00004   0.00029   0.00025   1.93481
    A4        1.88613  -0.00004   0.00004  -0.00030  -0.00026   1.88587
    A5        1.88613  -0.00004   0.00004  -0.00030  -0.00026   1.88587
    A6        1.88613  -0.00004   0.00004  -0.00030  -0.00026   1.88587
    A7        1.93456   0.00004  -0.00004   0.00029   0.00025   1.93481
    A8        1.93451   0.00004  -0.00004   0.00029   0.00025   1.93476
    A9        1.93456   0.00004  -0.00004   0.00029   0.00025   1.93480
   A10        1.88613  -0.00004   0.00004  -0.00030  -0.00026   1.88587
   A11        1.88613  -0.00004   0.00004  -0.00030  -0.00026   1.88587
   A12        1.88613  -0.00004   0.00004  -0.00030  -0.00026   1.88587
    D1        1.04718   0.00000   0.00000   0.00000   0.00000   1.04718
    D2       -1.04720   0.00000   0.00000   0.00000   0.00000  -1.04720
    D3        3.14159   0.00000   0.00000   0.00000   0.00000   3.14159
    D4       -1.04721   0.00000   0.00000   0.00000   0.00000  -1.04721
    D5        3.14159   0.00000   0.00000   0.00000   0.00000   3.14159
    D6        1.04720   0.00000   0.00000   0.00000   0.00000   1.04720
    D7        3.14159   0.00000   0.00000   0.00000   0.00000   3.14159
    D8        1.04721   0.00000   0.00000   0.00000   0.00000   1.04721
    D9       -1.04718   0.00000   0.00000   0.00000   0.00000  -1.04718
         Item               Value     Threshold  Converged?
 Maximum Force            0.000204     0.000450     YES
 RMS     Force            0.000047     0.000300     YES
 Maximum Displacement     0.000336     0.001800     YES
 RMS     Displacement     0.000144     0.001200     YES
 Predicted change in Energy=-1.432028D-07
 Optimization completed.
    -- Stationary point found.
                           ----------------------------
                           !   Optimized Parameters   !
                           ! (Angstroms and Degrees)  !
 --------------------------                            --------------------------
 ! Name  Definition              Value          Derivative Info.                !
 --------------------------------------------------------------------------------
 ! R1    R(1,2)                  1.5448         -DE/DX =   -0.0002              !
 ! R2    R(1,3)                  1.0955         -DE/DX =    0.0                 !
 ! R3    R(1,4)                  1.0956         -DE/DX =    0.0                 !
 ! R4    R(1,5)                  1.0956         -DE/DX =    0.0                 !
 ! R5    R(2,6)                  1.0956         -DE/DX =    0.0                 !
 ! R6    R(2,7)                  1.0956         -DE/DX =    0.0                 !
 ! R7    R(2,8)                  1.0955         -DE/DX =    0.0                 !
 ! A1    A(2,1,3)              110.8419         -DE/DX =    0.0                 !
 ! A2    A(2,1,4)              110.8395         -DE/DX =    0.0                 !
 ! A3    A(2,1,5)              110.842          -DE/DX =    0.0                 !
 ! A4    A(3,1,4)              108.0675         -DE/DX =    0.0                 !
 ! A5    A(3,1,5)              108.0672         -DE/DX =    0.0                 !
 ! A6    A(4,1,5)              108.067          -DE/DX =    0.0                 !
 ! A7    A(1,2,6)              110.842          -DE/DX =    0.0                 !
 ! A8    A(1,2,7)              110.8395         -DE/DX =    0.0                 !
 ! A9    A(1,2,8)              110.8419         -DE/DX =    0.0                 !
 ! A10   A(6,2,7)              108.067          -DE/DX =    0.0                 !
 ! A11   A(6,2,8)              108.0672         -DE/DX =    0.0                 !
 ! A12   A(7,2,8)              108.0675         -DE/DX =    0.0                 !
 ! D1    D(3,1,2,6)             59.999          -DE/DX =    0.0                 !
 ! D2    D(3,1,2,7)            -60.0003         -DE/DX =    0.0                 !
 ! D3    D(3,1,2,8)            180.0            -DE/DX =    0.0                 !
 ! D4    D(4,1,2,6)            -60.0008         -DE/DX =    0.0                 !
 ! D5    D(4,1,2,7)            180.0            -DE/DX =    0.0                 !
 ! D6    D(4,1,2,8)             60.0003         -DE/DX =    0.0                 !
 ! D7    D(5,1,2,6)            180.0            -DE/DX =    0.0                 !
 ! D8    D(5,1,2,7)             60.0008         -DE/DX =    0.0                 !
 ! D9    D(5,1,2,8)            -59.999          -DE/DX =    0.0                 !
 --------------------------------------------------------------------------------
 GradGradGradGradGradGradGradGradGradGradGradGradGradGradGradGradGradGrad

                          Input orientation:                          
 ---------------------------------------------------------------------
 Center     Atomic      Atomic             Coordinates (Angstroms)
 Number     Number       Type             X           Y           Z
 ---------------------------------------------------------------------
      1          6           0       -1.772000    1.608481    0.000011
      2          6           0       -0.946180    0.302969   -0.000011
      3          1           0       -2.709799    1.476478    0.550768
      4          1           0       -2.018743    1.913597   -1.022867
      5          1           0       -1.212555    2.423589    0.472109
      6          1           0       -1.505625   -0.512139   -0.472109
      7          1           0       -0.699437   -0.002147    1.022867
      8          1           0       -0.008381    0.434972   -0.550768
 ---------------------------------------------------------------------
                    Distance matrix (angstroms):
                    1          2          3          4          5
     1  C    0.000000
     2  C    1.544778   0.000000
     3  H    1.095548   2.188797   0.000000
     4  H    1.095563   2.188777   1.773404   0.000000
     5  H    1.095562   2.188808   1.773400   1.773410   0.000000
     6  H    2.188808   1.095562   2.539864   2.539846   3.097730
     7  H    2.188777   1.095563   2.539835   3.097688   2.539846
     8  H    2.188797   1.095548   3.097705   2.539835   2.539864
                    6          7          8
     6  H    0.000000
     7  H    1.773410   0.000000
     8  H    1.773400   1.773404   0.000000
 Stoichiometry    C2H6
 Framework group  CI[X(C2H6)]
 Deg. of freedom     9
 Full point group                 CI      NOp   2
 Largest Abelian subgroup         CI      NOp   2
 Largest concise Abelian subgroup CI      NOp   2
                         Standard orientation:                         
 ---------------------------------------------------------------------
 Center     Atomic      Atomic             Coordinates (Angstroms)
 Number     Number       Type             X           Y           Z
 ---------------------------------------------------------------------
      1          6           0       -0.412910    0.652756    0.000011
      2          6           0        0.412910   -0.652756   -0.000011
      3          1           0       -1.350709    0.520753    0.550768
      4          1           0       -0.659653    0.957872   -1.022867
      5          1           0        0.146535    1.467864    0.472109
      6          1           0       -0.146535   -1.467864   -0.472109
      7          1           0        0.659653   -0.957872    1.022867
      8          1           0        1.350709   -0.520753   -0.550768
 ---------------------------------------------------------------------
 Rotational constants (GHZ):     79.7235013     19.6992236     19.6991904

 **********************************************************************

            Population analysis using the SCF density.

 **********************************************************************

 Orbital symmetries:
       Occupied  (AU) (AG) (AG) (AU) (AU) (AU) (AG) (AG) (AG)
       Virtual   (AG) (AU) (AU) (AU) (AG) (AG) (AU) (AU) (AU) (AG)
                 (AU) (AG) (AG) (AG) (AU) (AU) (AG) (AG) (AU) (AG)
                 (AU)
 The electronic state is 1-AG.
 Alpha  occ. eigenvalues --  -10.10685 -10.10616  -0.74734  -0.61230  -0.43161
 Alpha  occ. eigenvalues --   -0.43161  -0.36225  -0.34037  -0.34036
 Alpha virt. eigenvalues --    0.13054   0.18051   0.18051   0.18425   0.21229
 Alpha virt. eigenvalues --    0.21230   0.24963   0.69298   0.69299   0.74590
 Alpha virt. eigenvalues --    0.78662   0.84767   0.84769   0.98495   1.06964
 Alpha virt. eigenvalues --    1.06965   1.07513   1.07514   1.13852   1.67674
 Alpha virt. eigenvalues --    2.02584
          Condensed to atoms (all electrons):
               1          2          3          4          5          6
     1  C    5.288723   0.283824   0.369922   0.369920   0.369922  -0.039778
     2  C    0.283824   5.288723  -0.039779  -0.039782  -0.039778   0.369922
     3  H    0.369922  -0.039779   0.541273  -0.028848  -0.028848  -0.002328
     4  H    0.369920  -0.039782  -0.028848   0.541280  -0.028847  -0.002328
     5  H    0.369922  -0.039778  -0.028848  -0.028847   0.541274   0.003278
     6  H   -0.039778   0.369922  -0.002328  -0.002328   0.003278   0.541274
     7  H   -0.039782   0.369920  -0.002328   0.003278  -0.002328  -0.028847
     8  H   -0.039779   0.369922   0.003278  -0.002328  -0.002328  -0.028848
               7          8
     1  C   -0.039782  -0.039779
     2  C    0.369920   0.369922
     3  H   -0.002328   0.003278
     4  H    0.003278  -0.002328
     5  H   -0.002328  -0.002328
     6  H   -0.028847  -0.028848
     7  H    0.541280  -0.028848
     8  H   -0.028848   0.541273
 Mulliken charges:
               1
     1  C   -0.562971
     2  C   -0.562971
     3  H    0.187659
     4  H    0.187655
     5  H    0.187657
     6  H    0.187657
     7  H    0.187655
     8  H    0.187659
 Sum of Mulliken charges =   0.00000
 Mulliken charges with hydrogens summed into heavy atoms:
               1
     1  C    0.000000
     2  C    0.000000
 Electronic spatial extent (au):  <R**2>=            110.2163
 Charge=              0.0000 electrons
 Dipole moment (field-independent basis, Debye):
    X=              0.0000    Y=              0.0000    Z=              0.0000  Tot=              0.0000
 Quadrupole moment (field-independent basis, Debye-Ang):
   XX=            -14.8886   YY=            -15.0597   ZZ=            -14.7744
   XY=              0.1805   XZ=             -0.0001   YZ=              0.0001
 Traceless Quadrupole moment (field-independent basis, Debye-Ang):
   XX=              0.0190   YY=             -0.1521   ZZ=              0.1332
   XY=              0.1805   XZ=             -0.0001   YZ=              0.0001
 Octapole moment (field-independent basis, Debye-Ang**2):
  XXX=              0.0000  YYY=              0.0000  ZZZ=              0.0000  XYY=              0.0000
  XXY=              0.0000  XXZ=              0.0000  XZZ=              0.0000  YZZ=              0.0000
  YYZ=              0.0000  XYZ=              0.0000
 Hexadecapole moment (field-independent basis, Debye-Ang**3):
 XXXX=            -44.8640 YYYY=            -72.1415 ZZZZ=            -27.7525 XXXY=             13.8065
 XXXZ=             -1.5910 YYYX=             15.3919 YYYZ=              1.0064 ZZZX=              0.7427
 ZZZY=             -1.1742 XXYY=            -20.2047 XXZZ=            -11.7915 YYZZ=            -16.1885
 XXYZ=              0.1674 YYXZ=              0.8485 ZZXY=              4.2025
 N-N= 4.197742269264D+01 E-N=-2.668211771895D+02  KE= 7.861619158339D+01
 Symmetry AG   KE= 4.079682313777D+01
 Symmetry AU   KE= 3.781936844563D+01
 1\1\GINC-N0292\FOpt\RB3LYP\3-21G\C2H6\TAIYUPAN\23-Feb-2017\0\\#n B3LYP
 /3-21G Opt\\CH3_B3LYP/3-21G\\0,1\C,-1.7720000588,1.6084810154,0.000011
 2872\C,-0.9461799412,0.3029689846,-0.0000112872\H,-2.7097990164,1.4764
 775827,0.5507682803\H,-2.0187425351,1.9135968394,-1.0228671871\H,-1.21
 25546895,2.4235887055,0.4721089127\H,-1.5056253105,-0.5121387055,-0.47
 21089127\H,-0.6994374649,-0.0021468394,1.0228671871\H,-0.0083809836,0.
 4349724173,-0.5507682803\\Version=ES64L-G09RevE.01\State=1-AG\HF=-79.4
 00643\RMSD=7.725e-10\RMSF=9.080e-05\Dipole=0.,0.,0.\Quadrupole=0.01410
 56,-0.1131,0.0989944,0.1341836,-0.0000402,0.0000528\PG=CI [X(C2H6)]\\@


 IF IT HAPPENS, IT MUST BE POSSIBLE.

 -- THE UNNAMED LAW FROM PAUL DICKSON'S 
    "THE OFFICIAL RULES"
 Job cpu time:       0 days  0 hours  0 minutes 24.6 seconds.
 File lengths (MBytes):  RWF=      5 Int=      0 D2E=      0 Chk=      1 Scr=      1
 Normal termination of Gaussian 09 at Thu Feb 23 18:24:48 2017.
