 Entering Gaussian System, Link 0=g09
 Input=CH3_C_3G.com
 Output=CH3_C_3G.log
 Initial command:
 /sw/contrib/gaussian/g09/E01/g09/l1.exe "/scr/Gau-23668.inp" -scrdir="/scr/"
 Entering Link 1 = /sw/contrib/gaussian/g09/E01/g09/l1.exe PID=     23669.
  
 Copyright (c) 1988,1990,1992,1993,1995,1998,2003,2009,2015,
            Gaussian, Inc.  All Rights Reserved.
  
 This is part of the Gaussian(R) 09 program.  It is based on
 the Gaussian(R) 03 system (copyright 2003, Gaussian, Inc.),
 the Gaussian(R) 98 system (copyright 1998, Gaussian, Inc.),
 the Gaussian(R) 94 system (copyright 1995, Gaussian, Inc.),
 the Gaussian 92(TM) system (copyright 1992, Gaussian, Inc.),
 the Gaussian 90(TM) system (copyright 1990, Gaussian, Inc.),
 the Gaussian 88(TM) system (copyright 1988, Gaussian, Inc.),
 the Gaussian 86(TM) system (copyright 1986, Carnegie Mellon
 University), and the Gaussian 82(TM) system (copyright 1983,
 Carnegie Mellon University). Gaussian is a federally registered
 trademark of Gaussian, Inc.
  
 This software contains proprietary and confidential information,
 including trade secrets, belonging to Gaussian, Inc.
  
 This software is provided under written license and may be
 used, copied, transmitted, or stored only in accord with that
 written license.
  
 The following legend is applicable only to US Government
 contracts under FAR:
  
                    RESTRICTED RIGHTS LEGEND
  
 Use, reproduction and disclosure by the US Government is
 subject to restrictions as set forth in subparagraphs (a)
 and (c) of the Commercial Computer Software - Restricted
 Rights clause in FAR 52.227-19.
  
 Gaussian, Inc.
 340 Quinnipiac St., Bldg. 40, Wallingford CT 06492
  
  
 ---------------------------------------------------------------
 Warning -- This program may not be used in any manner that
 competes with the business of Gaussian, Inc. or will provide
 assistance to any competitor of Gaussian, Inc.  The licensee
 of this program is prohibited from giving any competitor of
 Gaussian, Inc. access to this program.  By using this program,
 the user acknowledges that Gaussian, Inc. is engaged in the
 business of creating and licensing software in the field of
 computational chemistry and represents and warrants to the
 licensee that it is not a competitor of Gaussian, Inc. and that
 it will not use this program in any manner prohibited above.
 ---------------------------------------------------------------
  

 Cite this work as:
 Gaussian 09, Revision E.01,
 M. J. Frisch, G. W. Trucks, H. B. Schlegel, G. E. Scuseria, 
 M. A. Robb, J. R. Cheeseman, G. Scalmani, V. Barone, B. Mennucci, 
 G. A. Petersson, H. Nakatsuji, M. Caricato, X. Li, H. P. Hratchian, 
 A. F. Izmaylov, J. Bloino, G. Zheng, J. L. Sonnenberg, M. Hada, 
 M. Ehara, K. Toyota, R. Fukuda, J. Hasegawa, M. Ishida, T. Nakajima, 
 Y. Honda, O. Kitao, H. Nakai, T. Vreven, J. A. Montgomery, Jr., 
 J. E. Peralta, F. Ogliaro, M. Bearpark, J. J. Heyd, E. Brothers, 
 K. N. Kudin, V. N. Staroverov, T. Keith, R. Kobayashi, J. Normand, 
 K. Raghavachari, A. Rendell, J. C. Burant, S. S. Iyengar, J. Tomasi, 
 M. Cossi, N. Rega, J. M. Millam, M. Klene, J. E. Knox, J. B. Cross, 
 V. Bakken, C. Adamo, J. Jaramillo, R. Gomperts, R. E. Stratmann, 
 O. Yazyev, A. J. Austin, R. Cammi, C. Pomelli, J. W. Ochterski, 
 R. L. Martin, K. Morokuma, V. G. Zakrzewski, G. A. Voth, 
 P. Salvador, J. J. Dannenberg, S. Dapprich, A. D. Daniels, 
 O. Farkas, J. B. Foresman, J. V. Ortiz, J. Cioslowski, 
 and D. J. Fox, Gaussian, Inc., Wallingford CT, 2013.
 
 ******************************************
 Gaussian 09:  ES64L-G09RevE.01 30-Nov-2015
                23-Feb-2017 
 ******************************************
 %NProcShared=8
 Will use up to    8 processors via shared memory.
 -----------------
 #n CCSD/3-21G Opt
 -----------------
 1/18=20,19=15,38=1/1,3;
 2/9=110,12=2,17=6,18=5,40=1/2;
 3/5=5,11=9,16=1,25=1,30=1,71=1/1,2,3;
 4//1;
 5/5=2,38=5/2;
 8/6=4,9=120000,10=1/1,4;
 9/5=7,15=1/13;
 11/28=-8,29=200,42=3/11;
 10/5=6/2;
 6/7=2,8=2,9=2,10=2/1;
 7/12=7/1,2,3,16;
 1/18=20,19=15/3(2);
 2/9=110/2;
 99//99;
 2/9=110/2;
 3/5=5,11=9,16=1,25=1,30=1,71=1/1,2,3;
 4/5=5,16=3,69=1/1;
 5/5=2,38=5/2;
 8/6=4,9=120000,10=1/1,4;
 9/5=7,15=1/13;
 11/28=-8,29=200,42=3/11;
 10/5=6/2;
 7/12=7/1,2,3,16;
 1/18=20,19=15/3(-9);
 2/9=110/2;
 6/7=2,8=2,9=2,10=2/1;
 99//99;
 --------------
 CH3_CCSD/3-21G
 --------------
 Symbolic Z-matrix:
 Charge =  0 Multiplicity = 1
 C                    -1.76985   1.60508   0. 
 C                    -0.94833   0.30637   0. 
 H                    -2.70278   1.46556   0.5507 
 H                    -2.01181   1.90264  -1.02275 
 H                    -1.2057    2.41255   0.47205 
 H                    -1.51248  -0.5011   -0.47205 
 H                    -0.70637   0.00881   1.02275 
 H                    -0.0154    0.44589  -0.5507 
 

 GradGradGradGradGradGradGradGradGradGradGradGradGradGradGradGradGradGrad
 Berny optimization.
 Initialization pass.
                           ----------------------------
                           !    Initial Parameters    !
                           ! (Angstroms and Degrees)  !
 --------------------------                            --------------------------
 ! Name  Definition              Value          Derivative Info.                !
 --------------------------------------------------------------------------------
 ! R1    R(1,2)                  1.5367         estimate D2E/DX2                !
 ! R2    R(1,3)                  1.0923         estimate D2E/DX2                !
 ! R3    R(1,4)                  1.0923         estimate D2E/DX2                !
 ! R4    R(1,5)                  1.0923         estimate D2E/DX2                !
 ! R5    R(2,6)                  1.0923         estimate D2E/DX2                !
 ! R6    R(2,7)                  1.0923         estimate D2E/DX2                !
 ! R7    R(2,8)                  1.0923         estimate D2E/DX2                !
 ! A1    A(2,1,3)              110.4046         estimate D2E/DX2                !
 ! A2    A(2,1,4)              110.4044         estimate D2E/DX2                !
 ! A3    A(2,1,5)              110.404          estimate D2E/DX2                !
 ! A4    A(3,1,4)              108.5221         estimate D2E/DX2                !
 ! A5    A(3,1,5)              108.5221         estimate D2E/DX2                !
 ! A6    A(4,1,5)              108.5224         estimate D2E/DX2                !
 ! A7    A(1,2,6)              110.404          estimate D2E/DX2                !
 ! A8    A(1,2,7)              110.4044         estimate D2E/DX2                !
 ! A9    A(1,2,8)              110.4046         estimate D2E/DX2                !
 ! A10   A(6,2,7)              108.5224         estimate D2E/DX2                !
 ! A11   A(6,2,8)              108.5221         estimate D2E/DX2                !
 ! A12   A(7,2,8)              108.5221         estimate D2E/DX2                !
 ! D1    D(3,1,2,6)             60.0001         estimate D2E/DX2                !
 ! D2    D(3,1,2,7)            -59.9999         estimate D2E/DX2                !
 ! D3    D(3,1,2,8)            180.0            estimate D2E/DX2                !
 ! D4    D(4,1,2,6)            -59.9999         estimate D2E/DX2                !
 ! D5    D(4,1,2,7)            180.0            estimate D2E/DX2                !
 ! D6    D(4,1,2,8)             59.9999         estimate D2E/DX2                !
 ! D7    D(5,1,2,6)           -180.0            estimate D2E/DX2                !
 ! D8    D(5,1,2,7)             59.9999         estimate D2E/DX2                !
 ! D9    D(5,1,2,8)            -60.0001         estimate D2E/DX2                !
 --------------------------------------------------------------------------------
 Trust Radius=3.00D-01 FncErr=1.00D-07 GrdErr=1.00D-07
 Number of steps in this run=     38 maximum allowed number of steps=    100.
 GradGradGradGradGradGradGradGradGradGradGradGradGradGradGradGradGradGrad

                          Input orientation:                          
 ---------------------------------------------------------------------
 Center     Atomic      Atomic             Coordinates (Angstroms)
 Number     Number       Type             X           Y           Z
 ---------------------------------------------------------------------
      1          6           0       -1.769850    1.605080    0.000000
      2          6           0       -0.948330    0.306370    0.000000
      3          1           0       -2.702780    1.465560    0.550700
      4          1           0       -2.011810    1.902640   -1.022750
      5          1           0       -1.205700    2.412550    0.472050
      6          1           0       -1.512480   -0.501100   -0.472050
      7          1           0       -0.706370    0.008810    1.022750
      8          1           0       -0.015400    0.445890   -0.550700
 ---------------------------------------------------------------------
                    Distance matrix (angstroms):
                    1          2          3          4          5
     1  C    0.000000
     2  C    1.536731   0.000000
     3  H    1.092289   2.173726   0.000000
     4  H    1.092293   2.173726   1.773196   0.000000
     5  H    1.092293   2.173721   1.773196   1.773203   0.000000
     6  H    2.173721   1.092293   2.516065   2.516062   3.078116
     7  H    2.173726   1.092293   2.516069   3.078122   2.516062
     8  H    2.173726   1.092289   3.078120   2.516069   2.516065
                    6          7          8
     6  H    0.000000
     7  H    1.773203   0.000000
     8  H    1.773196   1.773196   0.000000
 This structure is nearly, but not quite of a higher symmetry.
 Consider Symm=Loose if the higher symmetry is desired.
 Stoichiometry    C2H6
 Framework group  CI[X(C2H6)]
 Deg. of freedom     9
 Full point group                 CI      NOp   2
 Largest Abelian subgroup         CI      NOp   2
 Largest concise Abelian subgroup CI      NOp   2
                         Standard orientation:                         
 ---------------------------------------------------------------------
 Center     Atomic      Atomic             Coordinates (Angstroms)
 Number     Number       Type             X           Y           Z
 ---------------------------------------------------------------------
      1          6           0       -0.410760    0.649355    0.000000
      2          6           0        0.410760   -0.649355    0.000000
      3          1           0       -1.343690    0.509835    0.550700
      4          1           0       -0.652720    0.946915   -1.022750
      5          1           0        0.153390    1.456825    0.472050
      6          1           0       -0.153390   -1.456825   -0.472050
      7          1           0        0.652720   -0.946915    1.022750
      8          1           0        1.343690   -0.509835   -0.550700
 ---------------------------------------------------------------------
 Rotational constants (GHZ):     79.7420612     19.9566490     19.9566228
 Standard basis: 3-21G (6D, 7F)
 There are    15 symmetry adapted cartesian basis functions of AG  symmetry.
 There are    15 symmetry adapted cartesian basis functions of AU  symmetry.
 There are    15 symmetry adapted basis functions of AG  symmetry.
 There are    15 symmetry adapted basis functions of AU  symmetry.
    30 basis functions,    48 primitive gaussians,    30 cartesian basis functions
     9 alpha electrons        9 beta electrons
       nuclear repulsion energy        42.1696170358 Hartrees.
 NAtoms=    8 NActive=    8 NUniq=    4 SFac= 4.00D+00 NAtFMM=   60 NAOKFM=F Big=F
 Integral buffers will be    131072 words long.
 Raffenetti 1 integral format.
 Two-electron integral symmetry is turned on.
 One-electron integrals computed using PRISM.
 NBasis=    30 RedAO= T EigKep=  1.33D-02  NBF=    15    15
 NBsUse=    30 1.00D-06 EigRej= -1.00D+00 NBFU=    15    15
 ExpMin= 1.83D-01 ExpMax= 1.72D+02 ExpMxC= 1.72D+02 IAcc=1 IRadAn=         1 AccDes= 0.00D+00
 Harris functional with IExCor=  205 and IRadAn=       1 diagonalized for initial guess.
 HarFok:  IExCor=  205 AccDes= 0.00D+00 IRadAn=         1 IDoV= 1 UseB2=F ITyADJ=14
 ICtDFT=  3500011 ScaDFX=  1.000000  1.000000  1.000000  1.000000
 FoFCou: FMM=F IPFlag=           0 FMFlag=      100000 FMFlg1=           0
         NFxFlg=           0 DoJE=T BraDBF=F KetDBF=T FulRan=T
         wScrn=  0.000000 ICntrl=     500 IOpCl=  0 I1Cent=   200000004 NGrid=           0
         NMat0=    1 NMatS0=      1 NMatT0=    0 NMatD0=    1 NMtDS0=    0 NMtDT0=    0
 Petite list used in FoFCou.
 Initial guess orbital symmetries:
       Occupied  (AU) (AG) (AG) (AU) (AU) (AU) (AG) (AG) (AG)
       Virtual   (AG) (AU) (AU) (AU) (AG) (AG) (AU) (AU) (AU) (AG)
                 (AU) (AG) (AG) (AG) (AU) (AU) (AG) (AG) (AU) (AG)
                 (AU)
 The electronic state of the initial guess is 1-AG.
 Keep R1 ints in memory in symmetry-blocked form, NReq=940952.
 Requested convergence on RMS density matrix=1.00D-08 within 128 cycles.
 Requested convergence on MAX density matrix=1.00D-06.
 Requested convergence on             energy=1.00D-06.
 No special actions if energy rises.
 SCF Done:  E(RHF) =  -78.7935858123     A.U. after    9 cycles
            NFock=  9  Conv=0.65D-09     -V/T= 2.0026
 ExpMin= 1.83D-01 ExpMax= 1.72D+02 ExpMxC= 1.72D+02 IAcc=3 IRadAn=         5 AccDes= 0.00D+00
 HarFok:  IExCor=  205 AccDes= 0.00D+00 IRadAn=         5 IDoV=-2 UseB2=F ITyADJ=14
 ICtDFT= 12500011 ScaDFX=  1.000000  1.000000  1.000000  1.000000
 Range of M.O.s used for correlation:     3    30
 NBasis=    30 NAE=     9 NBE=     9 NFC=     2 NFV=     0
 NROrb=     28 NOA=     7 NOB=     7 NVA=    21 NVB=    21
 Semi-Direct transformation.
 ModeAB=           4 MOrb=             7 LenV=      33431936
 LASXX=        30133 LTotXX=       30133 LenRXX=       63623
 LTotAB=       33490 MaxLAS=       51744 LenRXY=           0
 NonZer=       93756 LenScr=      785920 LnRSAI=       51744
 LnScr1=      785920 LExtra=           0 Total=      1687207
 MaxDsk=          -1 SrtSym=           T ITran=            4
 JobTyp=0 Pass  1:  I=   1 to   7.
 (rs|ai) integrals will be sorted in core.
 Spin components of T(2) and E(2):
     alpha-alpha T2 =       0.6351413077D-02 E2=     -0.1748692161D-01
     alpha-beta  T2 =       0.5541501495D-01 E2=     -0.1533069440D+00
     beta-beta   T2 =       0.6351413077D-02 E2=     -0.1748692161D-01
 ANorm=    0.1033497867D+01
 E2 =    -0.1882807872D+00 EUMP2 =    -0.78981866599472D+02
 Keep R2 and R3 ints in memory in symmetry-blocked form, NReq=911104.
 Iterations=  50 Convergence= 0.100D-07
 Iteration Nr.   1
 **********************
 DD1Dir will call FoFMem   1 times, MxPair=        56
 NAB=    28 NAA=     0 NBB=     0.
 MP4(R+Q)=  0.12424036D-02
 E3=       -0.21870169D-01        EUMP3=      -0.79003736768D+02
 E4(DQ)=   -0.56129875D-02        UMP4(DQ)=   -0.79009349756D+02
 E4(SDQ)=  -0.63595187D-02        UMP4(SDQ)=  -0.79010096287D+02
 DE(Corr)= -0.20884447     E(Corr)=     -79.002430282    
 NORM(A)=   0.10436521D+01
 Iteration Nr.   2
 **********************
 DD1Dir will call FoFMem   1 times, MxPair=        56
 NAB=    28 NAA=     0 NBB=     0.
 DE(Corr)= -0.21606340     E(CORR)=     -79.009649209     Delta=-7.22D-03
 NORM(A)=   0.10476223D+01
 Iteration Nr.   3
 **********************
 DD1Dir will call FoFMem   1 times, MxPair=        56
 NAB=    28 NAA=     0 NBB=     0.
 DE(Corr)= -0.21834825     E(CORR)=     -79.011934065     Delta=-2.28D-03
 NORM(A)=   0.10482166D+01
 Iteration Nr.   4
 **********************
 DD1Dir will call FoFMem   1 times, MxPair=        56
 NAB=    28 NAA=     0 NBB=     0.
 DE(Corr)= -0.21876833     E(CORR)=     -79.012354143     Delta=-4.20D-04
 NORM(A)=   0.10482768D+01
 Iteration Nr.   5
 **********************
 DD1Dir will call FoFMem   1 times, MxPair=        56
 NAB=    28 NAA=     0 NBB=     0.
 DE(Corr)= -0.21879475     E(CORR)=     -79.012380567     Delta=-2.64D-05
 NORM(A)=   0.10482765D+01
 Iteration Nr.   6
 **********************
 DD1Dir will call FoFMem   1 times, MxPair=        56
 NAB=    28 NAA=     0 NBB=     0.
 DE(Corr)= -0.21879493     E(CORR)=     -79.012380740     Delta=-1.73D-07
 NORM(A)=   0.10482760D+01
 Iteration Nr.   7
 **********************
 DD1Dir will call FoFMem   1 times, MxPair=        56
 NAB=    28 NAA=     0 NBB=     0.
 DE(Corr)= -0.21879486     E(CORR)=     -79.012380668     Delta= 7.15D-08
 NORM(A)=   0.10482762D+01
 Iteration Nr.   8
 **********************
 DD1Dir will call FoFMem   1 times, MxPair=        56
 NAB=    28 NAA=     0 NBB=     0.
 DE(Corr)= -0.21879498     E(CORR)=     -79.012380790     Delta=-1.22D-07
 NORM(A)=   0.10482761D+01
 Iteration Nr.   9
 **********************
 DD1Dir will call FoFMem   1 times, MxPair=        56
 NAB=    28 NAA=     0 NBB=     0.
 DE(Corr)= -0.21879498     E(CORR)=     -79.012380793     Delta=-2.35D-09
 NORM(A)=   0.10482761D+01
 Iteration Nr.  10
 **********************
 DD1Dir will call FoFMem   1 times, MxPair=        56
 NAB=    28 NAA=     0 NBB=     0.
 DE(Corr)= -0.21879498     E(CORR)=     -79.012380788     Delta= 5.04D-09
 NORM(A)=   0.10482761D+01
 Iteration Nr.  11
 **********************
 DD1Dir will call FoFMem   1 times, MxPair=        56
 NAB=    28 NAA=     0 NBB=     0.
 DE(Corr)= -0.21879497     E(CORR)=     -79.012380783     Delta= 4.43D-09
 NORM(A)=   0.10482761D+01
 Largest amplitude= 5.18D-02

 Z-AMPLITUDE ITERATIONS

 Iteration Nr.   1
 **********************
 DD1Dir will call FoFMem   1 times, MxPair=        56
 NAB=    28 NAA=     0 NBB=     0.
 DE(Z)  -0.21626212D+00          E(Z)=    -0.79009847930D+02
 NORM(A)=   0.10482761D+01
 Iteration Nr.   2
 **********************
 DD1Dir will call FoFMem   1 times, MxPair=        56
 NAB=    28 NAA=     0 NBB=     0.
 DE(Z)  -0.21626215D+00          E(Z)=    -0.79009847965D+02
 NORM(A)=   0.10482763D+01
 Iteration Nr.   3
 **********************
 DD1Dir will call FoFMem   1 times, MxPair=        56
 NAB=    28 NAA=     0 NBB=     0.
 DE(Z)  -0.21626221D+00          E(Z)=    -0.79009848024D+02
 NORM(A)=   0.10482758D+01
 Iteration Nr.   4
 **********************
 DD1Dir will call FoFMem   1 times, MxPair=        56
 NAB=    28 NAA=     0 NBB=     0.
 DE(Z)  -0.21626200D+00          E(Z)=    -0.79009847808D+02
 NORM(A)=   0.10482764D+01
 Iteration Nr.   5
 **********************
 DD1Dir will call FoFMem   1 times, MxPair=        56
 NAB=    28 NAA=     0 NBB=     0.
 DE(Z)  -0.21626226D+00          E(Z)=    -0.79009848071D+02
 NORM(A)=   0.10466600D+01
 Iteration Nr.   6
 **********************
 DD1Dir will call FoFMem   1 times, MxPair=        56
 NAB=    28 NAA=     0 NBB=     0.
 DE(Z)  -0.21546459D+00          E(Z)=    -0.79009050401D+02
 NORM(A)=   0.10466672D+01
 Iteration Nr.   7
 **********************
 DD1Dir will call FoFMem   1 times, MxPair=        56
 NAB=    28 NAA=     0 NBB=     0.
 DE(Z)  -0.21546803D+00          E(Z)=    -0.79009053843D+02
 NORM(A)=   0.10466672D+01
 Iteration Nr.   8
 **********************
 DD1Dir will call FoFMem   1 times, MxPair=        56
 NAB=    28 NAA=     0 NBB=     0.
 DE(Z)  -0.21546822D+00          E(Z)=    -0.79009054029D+02
 NORM(A)=   0.10466674D+01
 Iteration Nr.   9
 **********************
 DD1Dir will call FoFMem   1 times, MxPair=        56
 NAB=    28 NAA=     0 NBB=     0.
 DE(Z)  -0.21546835D+00          E(Z)=    -0.79009054165D+02
 NORM(A)=   0.10466674D+01
 Iteration Nr.  10
 **********************
 DD1Dir will call FoFMem   1 times, MxPair=        56
 NAB=    28 NAA=     0 NBB=     0.
 DE(Z)  -0.21546837D+00          E(Z)=    -0.79009054184D+02
 NORM(A)=   0.10466674D+01
 Iteration Nr.  11
 **********************
 DD1Dir will call FoFMem   1 times, MxPair=        56
 NAB=    28 NAA=     0 NBB=     0.
 DE(Z)  -0.21546837D+00          E(Z)=    -0.79009054187D+02
 NORM(A)=   0.10466674D+01
 Discarding MO integrals.
          IDoAtm=11111111
          Differentiating once with respect to electric field.
                with respect to dipole field.
          Differentiating once with respect to nuclear coordinates.
 Keep R1 ints in memory in symmetry-blocked form, NReq=923085.
          There are     1 degrees of freedom in the 1st order CPHF.  IDoFFX=0 NUNeed=     1.
 LinEq1:  Iter=  0 NonCon=     1 RMS=3.73D-03 Max=2.23D-02 NDo=     1
 AX will form     1 AO Fock derivatives at one time.
 LinEq1:  Iter=  1 NonCon=     1 RMS=1.53D-03 Max=9.45D-03 NDo=     1
 LinEq1:  Iter=  2 NonCon=     1 RMS=1.10D-04 Max=7.08D-04 NDo=     1
 LinEq1:  Iter=  3 NonCon=     1 RMS=7.98D-06 Max=4.10D-05 NDo=     1
 LinEq1:  Iter=  4 NonCon=     1 RMS=4.35D-07 Max=2.44D-06 NDo=     1
 LinEq1:  Iter=  5 NonCon=     1 RMS=2.68D-08 Max=1.57D-07 NDo=     1
 LinEq1:  Iter=  6 NonCon=     1 RMS=1.49D-09 Max=6.46D-09 NDo=     1
 LinEq1:  Iter=  7 NonCon=     0 RMS=9.23D-11 Max=6.12D-10 NDo=     1
 Linear equations converged to 1.000D-10 1.000D-09 after     7 iterations.
 End of Minotr F.D. properties file   721 does not exist.
 End of Minotr F.D. properties file   722 does not exist.
 End of Minotr F.D. properties file   788 does not exist.

 **********************************************************************

            Population analysis using the SCF density.

 **********************************************************************

 Orbital symmetries:
       Occupied  (AU) (AG) (AG) (AU) (AU) (AU) (AG) (AG) (AG)
       Virtual   (AG) (AU) (AU) (AU) (AG) (AG) (AU) (AU) (AU) (AG)
                 (AU) (AG) (AG) (AG) (AG) (AG) (AU) (AU) (AU) (AG)
                 (AU)
 The electronic state is 1-AG.
 Alpha  occ. eigenvalues --  -11.15460 -11.15437  -1.01891  -0.84097  -0.59906
 Alpha  occ. eigenvalues --   -0.59906  -0.50181  -0.48455  -0.48455
 Alpha virt. eigenvalues --    0.27667   0.33738   0.33738   0.34225   0.36824
 Alpha virt. eigenvalues --    0.36824   0.42486   0.91196   0.91196   0.96932
 Alpha virt. eigenvalues --    1.07516   1.08737   1.08737   1.27972   1.36409
 Alpha virt. eigenvalues --    1.36409   1.36427   1.36427   1.44205   1.93790
 Alpha virt. eigenvalues --    2.29961
          Condensed to atoms (all electrons):
               1          2          3          4          5          6
     1  C    5.352368   0.239099   0.378272   0.378272   0.378271  -0.043618
     2  C    0.239099   5.352368  -0.043617  -0.043617  -0.043618   0.378271
     3  H    0.378272  -0.043617   0.520122  -0.026278  -0.026278  -0.001835
     4  H    0.378272  -0.043617  -0.026278   0.520124  -0.026278  -0.001835
     5  H    0.378271  -0.043618  -0.026278  -0.026278   0.520125   0.002973
     6  H   -0.043618   0.378271  -0.001835  -0.001835   0.002973   0.520125
     7  H   -0.043617   0.378272  -0.001835   0.002973  -0.001835  -0.026278
     8  H   -0.043617   0.378272   0.002973  -0.001835  -0.001835  -0.026278
               7          8
     1  C   -0.043617  -0.043617
     2  C    0.378272   0.378272
     3  H   -0.001835   0.002973
     4  H    0.002973  -0.001835
     5  H   -0.001835  -0.001835
     6  H   -0.026278  -0.026278
     7  H    0.520124  -0.026278
     8  H   -0.026278   0.520122
 Mulliken charges:
               1
     1  C   -0.595428
     2  C   -0.595428
     3  H    0.198477
     4  H    0.198476
     5  H    0.198476
     6  H    0.198476
     7  H    0.198476
     8  H    0.198477
 Sum of Mulliken charges =   0.00000
 Mulliken charges with hydrogens summed into heavy atoms:
               1
     1  C    0.000000
     2  C    0.000000
 Electronic spatial extent (au):  <R**2>=            110.0591
 Charge=              0.0000 electrons
 Dipole moment (field-independent basis, Debye):
    X=              0.0000    Y=              0.0000    Z=              0.0000  Tot=              0.0000
 Quadrupole moment (field-independent basis, Debye-Ang):
   XX=            -15.2167   YY=            -15.4864   ZZ=            -15.0369
   XY=              0.2843   XZ=              0.0000   YZ=              0.0000
 Traceless Quadrupole moment (field-independent basis, Debye-Ang):
   XX=              0.0299   YY=             -0.2397   ZZ=              0.2098
   XY=              0.2843   XZ=              0.0000   YZ=              0.0000
 Octapole moment (field-independent basis, Debye-Ang**2):
  XXX=              0.0000  YYY=              0.0000  ZZZ=              0.0000  XYY=              0.0000
  XXY=              0.0000  XXZ=              0.0000  XZZ=              0.0000  YZZ=              0.0000
  YYZ=              0.0000  XYZ=              0.0000
 Hexadecapole moment (field-independent basis, Debye-Ang**3):
 XXXX=            -45.4237 YYYY=            -72.9059 ZZZZ=            -28.1214 XXXY=             13.9378
 XXXZ=             -1.6468 YYYX=             15.4917 YYYZ=              1.0417 ZZZX=              0.7685
 ZZZY=             -1.2150 XXYY=            -20.4026 XXZZ=            -11.9414 YYZZ=            -16.3994
 XXYZ=              0.1733 YYXZ=              0.8782 ZZXY=              4.2516
 N-N= 4.216961703580D+01 E-N=-2.668396862585D+02  KE= 7.858903413195D+01
 Symmetry AG   KE= 4.076385305861D+01
 Symmetry AU   KE= 3.782518107334D+01
 Calling FoFJK, ICntrl=  10002127 FMM=F ISym2X=1 I1Cent= 0 IOpClX= 0 NMat=1 NMatS=1 NMatT=0.
 ***** Axes restored to original set *****
 -------------------------------------------------------------------
 Center     Atomic                   Forces (Hartrees/Bohr)
 Number     Number              X              Y              Z
 -------------------------------------------------------------------
      1        6          -0.001808826    0.002865537   -0.000001010
      2        6           0.001808826   -0.002865537    0.000001010
      3        1          -0.004255126    0.000720047    0.002049082
      4        1          -0.001683485    0.002346316   -0.003802631
      5        1           0.001313002    0.004242579    0.001754689
      6        1          -0.001313002   -0.004242579   -0.001754689
      7        1           0.001683485   -0.002346316    0.003802631
      8        1           0.004255126   -0.000720047   -0.002049082
 -------------------------------------------------------------------
 Cartesian Forces:  Max     0.004255126 RMS     0.002580506

 GradGradGradGradGradGradGradGradGradGradGradGradGradGradGradGradGradGrad
 Berny optimization.
 FormGI is forming the generalized inverse of G from B-inverse, IUseBI=4.
 Internal  Forces:  Max     0.012038355 RMS     0.003239206
 Search for a local minimum.
 Step number   1 out of a maximum of   38
 All quantities printed in internal units (Hartrees-Bohrs-Radians)
 Mixed Optimization -- RFO/linear search
 Second derivative matrix not updated -- first step.
 ITU=  0
     Eigenvalues ---    0.00280   0.05575   0.05575   0.05575   0.05575
     Eigenvalues ---    0.16000   0.16000   0.16000   0.16000   0.16000
     Eigenvalues ---    0.16000   0.28810   0.34549   0.34549   0.34549
     Eigenvalues ---    0.34549   0.34549   0.34549
 RFO step:  Lambda=-1.00856044D-03 EMin= 2.80064107D-03
 Linear search not attempted -- first point.
 Iteration  1 RMS(Cart)=  0.02036362 RMS(Int)=  0.00004142
 Iteration  2 RMS(Cart)=  0.00004341 RMS(Int)=  0.00002342
 Iteration  3 RMS(Cart)=  0.00000000 RMS(Int)=  0.00002342
 ClnCor:  largest displacement from symmetrization is 5.52D-10 for atom     8.
 Variable       Old X    -DE/DX   Delta X   Delta X   Delta X     New X
                                 (Linear)    (Quad)   (Total)
    R1        2.90400   0.01204   0.00000   0.04164   0.04164   2.94564
    R2        2.06413   0.00458   0.00000   0.01320   0.01320   2.07733
    R3        2.06413   0.00457   0.00000   0.01320   0.01320   2.07733
    R4        2.06413   0.00457   0.00000   0.01320   0.01320   2.07733
    R5        2.06413   0.00457   0.00000   0.01320   0.01320   2.07733
    R6        2.06413   0.00457   0.00000   0.01320   0.01320   2.07733
    R7        2.06413   0.00458   0.00000   0.01320   0.01320   2.07733
    A1        1.92692   0.00137   0.00000   0.00851   0.00848   1.93540
    A2        1.92692   0.00137   0.00000   0.00852   0.00848   1.93540
    A3        1.92691   0.00137   0.00000   0.00853   0.00849   1.93540
    A4        1.89407  -0.00142   0.00000  -0.00881  -0.00884   1.88523
    A5        1.89407  -0.00142   0.00000  -0.00881  -0.00884   1.88523
    A6        1.89407  -0.00142   0.00000  -0.00881  -0.00885   1.88523
    A7        1.92691   0.00137   0.00000   0.00853   0.00849   1.93540
    A8        1.92692   0.00137   0.00000   0.00852   0.00848   1.93540
    A9        1.92692   0.00137   0.00000   0.00851   0.00848   1.93540
   A10        1.89407  -0.00142   0.00000  -0.00881  -0.00885   1.88523
   A11        1.89407  -0.00142   0.00000  -0.00881  -0.00884   1.88523
   A12        1.89407  -0.00142   0.00000  -0.00881  -0.00884   1.88523
    D1        1.04720   0.00000   0.00000   0.00000   0.00000   1.04720
    D2       -1.04720   0.00000   0.00000   0.00000   0.00000  -1.04720
    D3        3.14159   0.00000   0.00000   0.00000   0.00000   3.14159
    D4       -1.04720   0.00000   0.00000   0.00000   0.00000  -1.04720
    D5        3.14159   0.00000   0.00000   0.00000   0.00000   3.14159
    D6        1.04720   0.00000   0.00000   0.00000   0.00000   1.04720
    D7        3.14159   0.00000   0.00000   0.00000   0.00000   3.14159
    D8        1.04720   0.00000   0.00000   0.00000   0.00000   1.04720
    D9       -1.04720   0.00000   0.00000   0.00000   0.00000  -1.04720
         Item               Value     Threshold  Converged?
 Maximum Force            0.012038     0.000450     NO 
 RMS     Force            0.003239     0.000300     NO 
 Maximum Displacement     0.038348     0.001800     NO 
 RMS     Displacement     0.020384     0.001200     NO 
 Predicted change in Energy=-5.061348D-04
 GradGradGradGradGradGradGradGradGradGradGradGradGradGradGradGradGradGrad

                          Input orientation:                          
 ---------------------------------------------------------------------
 Center     Atomic      Atomic             Coordinates (Angstroms)
 Number     Number       Type             X           Y           Z
 ---------------------------------------------------------------------
      1          6           0       -1.775737    1.614392    0.000000
      2          6           0       -0.942443    0.297058    0.000000
      3          1           0       -2.716957    1.482832    0.552455
      4          1           0       -2.023785    1.921308   -1.026004
      5          1           0       -1.215114    2.432843    0.473550
      6          1           0       -1.503066   -0.521393   -0.473550
      7          1           0       -0.694395   -0.009858    1.026004
      8          1           0       -0.001223    0.428618   -0.552455
 ---------------------------------------------------------------------
                    Distance matrix (angstroms):
                    1          2          3          4          5
     1  C    0.000000
     2  C    1.558766   0.000000
     3  H    1.099276   2.204579   0.000000
     4  H    1.099276   2.204580   1.778842   0.000000
     5  H    1.099277   2.204581   1.778842   1.778842   0.000000
     6  H    2.204581   1.099277   2.557956   2.557956   3.115674
     7  H    2.204580   1.099276   2.557954   3.115672   2.557956
     8  H    2.204579   1.099276   3.115671   2.557954   2.557956
                    6          7          8
     6  H    0.000000
     7  H    1.778842   0.000000
     8  H    1.778842   1.778842   0.000000
 Stoichiometry    C2H6
 Framework group  CI[X(C2H6)]
 Deg. of freedom     9
 Full point group                 CI      NOp   2
 Largest Abelian subgroup         CI      NOp   2
 Largest concise Abelian subgroup CI      NOp   2
                         Standard orientation:                         
 ---------------------------------------------------------------------
 Center     Atomic      Atomic             Coordinates (Angstroms)
 Number     Number       Type             X           Y           Z
 ---------------------------------------------------------------------
      1          6           0       -0.416647    0.658667    0.000000
      2          6           0        0.416647   -0.658667    0.000000
      3          1           0       -1.357867    0.527107    0.552455
      4          1           0       -0.664695    0.965583   -1.026004
      5          1           0        0.143976    1.477118    0.473550
      6          1           0       -0.143976   -1.477118   -0.473550
      7          1           0        0.664695   -0.965583    1.026004
      8          1           0        1.357867   -0.527107   -0.552455
 ---------------------------------------------------------------------
 Rotational constants (GHZ):     79.2368938     19.3895353     19.3895342
 Standard basis: 3-21G (6D, 7F)
 There are    15 symmetry adapted cartesian basis functions of AG  symmetry.
 There are    15 symmetry adapted cartesian basis functions of AU  symmetry.
 There are    15 symmetry adapted basis functions of AG  symmetry.
 There are    15 symmetry adapted basis functions of AU  symmetry.
    30 basis functions,    48 primitive gaussians,    30 cartesian basis functions
     9 alpha electrons        9 beta electrons
       nuclear repulsion energy        41.7283378832 Hartrees.
 NAtoms=    8 NActive=    8 NUniq=    4 SFac= 4.00D+00 NAtFMM=   60 NAOKFM=F Big=F
 Integral buffers will be    131072 words long.
 Raffenetti 1 integral format.
 Two-electron integral symmetry is turned on.
 One-electron integrals computed using PRISM.
 NBasis=    30 RedAO= T EigKep=  1.42D-02  NBF=    15    15
 NBsUse=    30 1.00D-06 EigRej= -1.00D+00 NBFU=    15    15
 Initial guess from the checkpoint file:  "/scr/Gau-23669.chk"
 B after Tr=     0.000000    0.000000    0.000000
         Rot=    1.000000    0.000000    0.000000    0.000001 Ang=   0.00 deg.
 Initial guess orbital symmetries:
       Occupied  (AU) (AG) (AG) (AU) (AU) (AU) (AG) (AG) (AG)
       Virtual   (AG) (AG) (AG) (AG) (AG) (AG) (AG) (AG) (AG) (AG)
                 (AU) (AU) (AU) (AU) (AU) (AU) (AU) (AU) (AU) (AU)
                 (AU)
 ExpMin= 1.83D-01 ExpMax= 1.72D+02 ExpMxC= 1.72D+02 IAcc=1 IRadAn=         1 AccDes= 0.00D+00
 Harris functional with IExCor=  205 and IRadAn=       1 diagonalized for initial guess.
 HarFok:  IExCor=  205 AccDes= 0.00D+00 IRadAn=         1 IDoV= 1 UseB2=F ITyADJ=14
 ICtDFT=  3500011 ScaDFX=  1.000000  1.000000  1.000000  1.000000
 FoFCou: FMM=F IPFlag=           0 FMFlag=      100000 FMFlg1=           0
         NFxFlg=           0 DoJE=T BraDBF=F KetDBF=T FulRan=T
         wScrn=  0.000000 ICntrl=     500 IOpCl=  0 I1Cent=   200000004 NGrid=           0
         NMat0=    1 NMatS0=      1 NMatT0=    0 NMatD0=    1 NMtDS0=    0 NMtDT0=    0
 Petite list used in FoFCou.
 Keep R1 ints in memory in symmetry-blocked form, NReq=940922.
 Requested convergence on RMS density matrix=1.00D-08 within 128 cycles.
 Requested convergence on MAX density matrix=1.00D-06.
 Requested convergence on             energy=1.00D-06.
 No special actions if energy rises.
 SCF Done:  E(RHF) =  -78.7928671873     A.U. after    7 cycles
            NFock=  7  Conv=0.99D-08     -V/T= 2.0039
 ExpMin= 1.83D-01 ExpMax= 1.72D+02 ExpMxC= 1.72D+02 IAcc=3 IRadAn=         5 AccDes= 0.00D+00
 HarFok:  IExCor=  205 AccDes= 0.00D+00 IRadAn=         5 IDoV=-2 UseB2=F ITyADJ=14
 ICtDFT= 12500011 ScaDFX=  1.000000  1.000000  1.000000  1.000000
 Range of M.O.s used for correlation:     3    30
 NBasis=    30 NAE=     9 NBE=     9 NFC=     2 NFV=     0
 NROrb=     28 NOA=     7 NOB=     7 NVA=    21 NVB=    21
 Semi-Direct transformation.
 ModeAB=           4 MOrb=             7 LenV=      33431936
 LASXX=        30133 LTotXX=       30133 LenRXX=       63623
 LTotAB=       33490 MaxLAS=       51744 LenRXY=           0
 NonZer=       93756 LenScr=      785920 LnRSAI=       51744
 LnScr1=      785920 LExtra=           0 Total=      1687207
 MaxDsk=          -1 SrtSym=           T ITran=            4
 JobTyp=0 Pass  1:  I=   1 to   7.
 (rs|ai) integrals will be sorted in core.
 Spin components of T(2) and E(2):
     alpha-alpha T2 =       0.6390251879D-02 E2=     -0.1748163721D-01
     alpha-beta  T2 =       0.5621615724D-01 E2=     -0.1540971458D+00
     beta-beta   T2 =       0.6390251879D-02 E2=     -0.1748163721D-01
 ANorm=    0.1033922947D+01
 E2 =    -0.1890604203D+00 EUMP2 =    -0.78981927607560D+02
 Keep R2 and R3 ints in memory in symmetry-blocked form, NReq=911104.
 Iterations=  50 Convergence= 0.100D-07
 Iteration Nr.   1
 **********************
 DD1Dir will call FoFMem   1 times, MxPair=        56
 NAB=    28 NAA=     0 NBB=     0.
 MP4(R+Q)=  0.12592849D-02
 E3=       -0.21984554D-01        EUMP3=      -0.79003912161D+02
 E4(DQ)=   -0.57284825D-02        UMP4(DQ)=   -0.79009640644D+02
 E4(SDQ)=  -0.65292079D-02        UMP4(SDQ)=  -0.79010441369D+02
 DE(Corr)= -0.20971571     E(Corr)=     -79.002582893    
 NORM(A)=   0.10442775D+01
 Iteration Nr.   2
 **********************
 DD1Dir will call FoFMem   1 times, MxPair=        56
 NAB=    28 NAA=     0 NBB=     0.
 DE(Corr)= -0.21710341     E(CORR)=     -79.009970602     Delta=-7.39D-03
 NORM(A)=   0.10484252D+01
 Iteration Nr.   3
 **********************
 DD1Dir will call FoFMem   1 times, MxPair=        56
 NAB=    28 NAA=     0 NBB=     0.
 DE(Corr)= -0.21946593     E(CORR)=     -79.012333119     Delta=-2.36D-03
 NORM(A)=   0.10490597D+01
 Iteration Nr.   4
 **********************
 DD1Dir will call FoFMem   1 times, MxPair=        56
 NAB=    28 NAA=     0 NBB=     0.
 DE(Corr)= -0.21991109     E(CORR)=     -79.012778282     Delta=-4.45D-04
 NORM(A)=   0.10491251D+01
 Iteration Nr.   5
 **********************
 DD1Dir will call FoFMem   1 times, MxPair=        56
 NAB=    28 NAA=     0 NBB=     0.
 DE(Corr)= -0.21993969     E(CORR)=     -79.012806881     Delta=-2.86D-05
 NORM(A)=   0.10491248D+01
 Iteration Nr.   6
 **********************
 DD1Dir will call FoFMem   1 times, MxPair=        56
 NAB=    28 NAA=     0 NBB=     0.
 DE(Corr)= -0.21993989     E(CORR)=     -79.012807080     Delta=-1.98D-07
 NORM(A)=   0.10491242D+01
 Iteration Nr.   7
 **********************
 DD1Dir will call FoFMem   1 times, MxPair=        56
 NAB=    28 NAA=     0 NBB=     0.
 DE(Corr)= -0.21993982     E(CORR)=     -79.012807002     Delta= 7.72D-08
 NORM(A)=   0.10491244D+01
 Iteration Nr.   8
 **********************
 DD1Dir will call FoFMem   1 times, MxPair=        56
 NAB=    28 NAA=     0 NBB=     0.
 DE(Corr)= -0.21993995     E(CORR)=     -79.012807133     Delta=-1.31D-07
 NORM(A)=   0.10491243D+01
 Iteration Nr.   9
 **********************
 DD1Dir will call FoFMem   1 times, MxPair=        56
 NAB=    28 NAA=     0 NBB=     0.
 DE(Corr)= -0.21993995     E(CORR)=     -79.012807139     Delta=-5.26D-09
 NORM(A)=   0.10491243D+01
 Iteration Nr.  10
 **********************
 DD1Dir will call FoFMem   1 times, MxPair=        56
 NAB=    28 NAA=     0 NBB=     0.
 DE(Corr)= -0.21993995     E(CORR)=     -79.012807134     Delta= 4.34D-09
 NORM(A)=   0.10491243D+01
 Iteration Nr.  11
 **********************
 DD1Dir will call FoFMem   1 times, MxPair=        56
 NAB=    28 NAA=     0 NBB=     0.
 DE(Corr)= -0.21993994     E(CORR)=     -79.012807130     Delta= 4.50D-09
 NORM(A)=   0.10491243D+01
 Largest amplitude= 5.37D-02

 Z-AMPLITUDE ITERATIONS

 Iteration Nr.   1
 **********************
 DD1Dir will call FoFMem   1 times, MxPair=        56
 NAB=    28 NAA=     0 NBB=     0.
 DE(Z)  -0.21734562D+00          E(Z)=    -0.79010212807D+02
 NORM(A)=   0.10491245D+01
 Iteration Nr.   2
 **********************
 DD1Dir will call FoFMem   1 times, MxPair=        56
 NAB=    28 NAA=     0 NBB=     0.
 DE(Z)  -0.21734569D+00          E(Z)=    -0.79010212876D+02
 NORM(A)=   0.10491249D+01
 Iteration Nr.   3
 **********************
 DD1Dir will call FoFMem   1 times, MxPair=        56
 NAB=    28 NAA=     0 NBB=     0.
 DE(Z)  -0.21734591D+00          E(Z)=    -0.79010213100D+02
 NORM(A)=   0.10491261D+01
 Iteration Nr.   4
 **********************
 DD1Dir will call FoFMem   1 times, MxPair=        56
 NAB=    28 NAA=     0 NBB=     0.
 DE(Z)  -0.21734645D+00          E(Z)=    -0.79010213638D+02
 NORM(A)=   0.10491136D+01
 Iteration Nr.   5
 **********************
 DD1Dir will call FoFMem   1 times, MxPair=        56
 NAB=    28 NAA=     0 NBB=     0.
 DE(Z)  -0.21734052D+00          E(Z)=    -0.79010207705D+02
 NORM(A)=   0.10474471D+01
 Iteration Nr.   6
 **********************
 DD1Dir will call FoFMem   1 times, MxPair=        56
 NAB=    28 NAA=     0 NBB=     0.
 DE(Z)  -0.21651438D+00          E(Z)=    -0.79009381567D+02
 NORM(A)=   0.10474475D+01
 Iteration Nr.   7
 **********************
 DD1Dir will call FoFMem   1 times, MxPair=        56
 NAB=    28 NAA=     0 NBB=     0.
 DE(Z)  -0.21651458D+00          E(Z)=    -0.79009381764D+02
 NORM(A)=   0.10474479D+01
 Iteration Nr.   8
 **********************
 DD1Dir will call FoFMem   1 times, MxPair=        56
 NAB=    28 NAA=     0 NBB=     0.
 DE(Z)  -0.21651470D+00          E(Z)=    -0.79009381884D+02
 NORM(A)=   0.10474474D+01
 Iteration Nr.   9
 **********************
 DD1Dir will call FoFMem   1 times, MxPair=        56
 NAB=    28 NAA=     0 NBB=     0.
 DE(Z)  -0.21651451D+00          E(Z)=    -0.79009381702D+02
 NORM(A)=   0.10474474D+01
 Iteration Nr.  10
 **********************
 DD1Dir will call FoFMem   1 times, MxPair=        56
 NAB=    28 NAA=     0 NBB=     0.
 DE(Z)  -0.21651451D+00          E(Z)=    -0.79009381694D+02
 NORM(A)=   0.10474474D+01
 Discarding MO integrals.
          IDoAtm=11111111
          Differentiating once with respect to electric field.
                with respect to dipole field.
          Differentiating once with respect to nuclear coordinates.
 Keep R1 ints in memory in symmetry-blocked form, NReq=923085.
          There are     1 degrees of freedom in the 1st order CPHF.  IDoFFX=0 NUNeed=     1.
 LinEq1:  Iter=  0 NonCon=     1 RMS=3.87D-03 Max=2.42D-02 NDo=     1
 AX will form     1 AO Fock derivatives at one time.
 LinEq1:  Iter=  1 NonCon=     1 RMS=1.59D-03 Max=8.39D-03 NDo=     1
 LinEq1:  Iter=  2 NonCon=     1 RMS=1.12D-04 Max=7.32D-04 NDo=     1
 LinEq1:  Iter=  3 NonCon=     1 RMS=8.16D-06 Max=4.17D-05 NDo=     1
 LinEq1:  Iter=  4 NonCon=     1 RMS=4.48D-07 Max=2.78D-06 NDo=     1
 LinEq1:  Iter=  5 NonCon=     1 RMS=2.83D-08 Max=1.63D-07 NDo=     1
 LinEq1:  Iter=  6 NonCon=     1 RMS=1.66D-09 Max=7.60D-09 NDo=     1
 LinEq1:  Iter=  7 NonCon=     0 RMS=9.39D-11 Max=6.88D-10 NDo=     1
 Linear equations converged to 1.000D-10 1.000D-09 after     7 iterations.
 End of Minotr F.D. properties file   721 does not exist.
 End of Minotr F.D. properties file   722 does not exist.
 End of Minotr F.D. properties file   788 does not exist.
 Calling FoFJK, ICntrl=  10002127 FMM=F ISym2X=1 I1Cent= 0 IOpClX= 0 NMat=1 NMatS=1 NMatT=0.
 ***** Axes restored to original set *****
 -------------------------------------------------------------------
 Center     Atomic                   Forces (Hartrees/Bohr)
 Number     Number              X              Y              Z
 -------------------------------------------------------------------
      1        6          -0.000023761    0.000037328   -0.000000122
      2        6           0.000023761   -0.000037328    0.000000122
      3        1           0.000178838   -0.000586578    0.000103656
      4        1           0.000308908   -0.000504400   -0.000192460
      5        1           0.000460681   -0.000408700    0.000088819
      6        1          -0.000460681    0.000408700   -0.000088819
      7        1          -0.000308908    0.000504400    0.000192460
      8        1          -0.000178838    0.000586578   -0.000103656
 -------------------------------------------------------------------
 Cartesian Forces:  Max     0.000586578 RMS     0.000311287

 GradGradGradGradGradGradGradGradGradGradGradGradGradGradGradGradGradGrad
 Berny optimization.
 Using GEDIIS/GDIIS optimizer.
 FormGI is forming the generalized inverse of G from B-inverse, IUseBI=4.
 Internal  Forces:  Max     0.001730166 RMS     0.000526039
 Search for a local minimum.
 Step number   2 out of a maximum of   38
 All quantities printed in internal units (Hartrees-Bohrs-Radians)
 Mixed Optimization -- En-DIIS/RFO-DIIS
 Update second derivatives using D2CorX and points    1    2
 DE= -4.26D-04 DEPred=-5.06D-04 R= 8.42D-01
 TightC=F SS=  1.41D+00  RLast= 6.07D-02 DXNew= 5.0454D-01 1.8199D-01
 Trust test= 8.42D-01 RLast= 6.07D-02 DXMaxT set to 3.00D-01
 ITU=  1  0
 Use linear search instead of GDIIS.
     Eigenvalues ---    0.00280   0.05486   0.05486   0.05486   0.05486
     Eigenvalues ---    0.16000   0.16000   0.16000   0.16000   0.16000
     Eigenvalues ---    0.17320   0.31404   0.33465   0.34549   0.34549
     Eigenvalues ---    0.34549   0.34549   0.34549
 RFO step:  Lambda=-1.60788529D-05 EMin= 2.80064107D-03
 Quartic linear search produced a step of -0.12640.
 Iteration  1 RMS(Cart)=  0.00425051 RMS(Int)=  0.00000639
 Iteration  2 RMS(Cart)=  0.00000743 RMS(Int)=  0.00000053
 Iteration  3 RMS(Cart)=  0.00000000 RMS(Int)=  0.00000053
 ClnCor:  largest displacement from symmetrization is 5.30D-09 for atom     8.
 Variable       Old X    -DE/DX   Delta X   Delta X   Delta X     New X
                                 (Linear)    (Quad)   (Total)
    R1        2.94564  -0.00173  -0.00526   0.00049  -0.00477   2.94087
    R2        2.07733  -0.00003  -0.00167   0.00175   0.00008   2.07741
    R3        2.07733  -0.00003  -0.00167   0.00175   0.00008   2.07741
    R4        2.07733  -0.00003  -0.00167   0.00175   0.00008   2.07741
    R5        2.07733  -0.00003  -0.00167   0.00175   0.00008   2.07741
    R6        2.07733  -0.00003  -0.00167   0.00175   0.00008   2.07741
    R7        2.07733  -0.00003  -0.00167   0.00175   0.00008   2.07741
    A1        1.93540  -0.00061  -0.00107  -0.00221  -0.00329   1.93212
    A2        1.93540  -0.00061  -0.00107  -0.00221  -0.00329   1.93212
    A3        1.93540  -0.00061  -0.00107  -0.00221  -0.00329   1.93211
    A4        1.88523   0.00064   0.00112   0.00233   0.00344   1.88867
    A5        1.88523   0.00064   0.00112   0.00233   0.00344   1.88867
    A6        1.88523   0.00064   0.00112   0.00233   0.00344   1.88867
    A7        1.93540  -0.00061  -0.00107  -0.00221  -0.00329   1.93211
    A8        1.93540  -0.00061  -0.00107  -0.00221  -0.00329   1.93212
    A9        1.93540  -0.00061  -0.00107  -0.00221  -0.00329   1.93212
   A10        1.88523   0.00064   0.00112   0.00233   0.00344   1.88867
   A11        1.88523   0.00064   0.00112   0.00233   0.00344   1.88867
   A12        1.88523   0.00064   0.00112   0.00233   0.00344   1.88867
    D1        1.04720   0.00000   0.00000   0.00000   0.00000   1.04720
    D2       -1.04720   0.00000   0.00000   0.00000   0.00000  -1.04720
    D3        3.14159   0.00000   0.00000   0.00000   0.00000   3.14159
    D4       -1.04720   0.00000   0.00000   0.00000   0.00000  -1.04720
    D5        3.14159   0.00000   0.00000   0.00000   0.00000   3.14159
    D6        1.04720   0.00000   0.00000   0.00000   0.00000   1.04720
    D7        3.14159   0.00000   0.00000   0.00000   0.00000   3.14159
    D8        1.04720   0.00000   0.00000   0.00000   0.00000   1.04720
    D9       -1.04720   0.00000   0.00000   0.00000   0.00000  -1.04720
         Item               Value     Threshold  Converged?
 Maximum Force            0.001730     0.000450     NO 
 RMS     Force            0.000526     0.000300     NO 
 Maximum Displacement     0.008513     0.001800     NO 
 RMS     Displacement     0.004256     0.001200     NO 
 Predicted change in Energy=-1.643904D-05
 GradGradGradGradGradGradGradGradGradGradGradGradGradGradGradGradGradGrad

                          Input orientation:                          
 ---------------------------------------------------------------------
 Center     Atomic      Atomic             Coordinates (Angstroms)
 Number     Number       Type             X           Y           Z
 ---------------------------------------------------------------------
      1          6           0       -1.775063    1.613325    0.000000
      2          6           0       -0.943117    0.298125    0.000000
      3          1           0       -2.715429    1.478328    0.553167
      4          1           0       -2.021363    1.917368   -1.027326
      5          1           0       -1.211649    2.429562    0.474160
      6          1           0       -1.506531   -0.518112   -0.474160
      7          1           0       -0.696817   -0.005918    1.027326
      8          1           0       -0.002751    0.433122   -0.553167
 ---------------------------------------------------------------------
                    Distance matrix (angstroms):
                    1          2          3          4          5
     1  C    0.000000
     2  C    1.556242   0.000000
     3  H    1.099320   2.199991   0.000000
     4  H    1.099320   2.199991   1.781135   0.000000
     5  H    1.099320   2.199991   1.781135   1.781135   0.000000
     6  H    2.199991   1.099320   2.550020   2.550021   3.110473
     7  H    2.199991   1.099320   2.550021   3.110474   2.550021
     8  H    2.199991   1.099320   3.110474   2.550021   2.550020
                    6          7          8
     6  H    0.000000
     7  H    1.781135   0.000000
     8  H    1.781135   1.781135   0.000000
 Stoichiometry    C2H6
 Framework group  CI[X(C2H6)]
 Deg. of freedom     9
 Full point group                 CI      NOp   2
 Largest Abelian subgroup         CI      NOp   2
 Largest concise Abelian subgroup CI      NOp   2
                         Standard orientation:                         
 ---------------------------------------------------------------------
 Center     Atomic      Atomic             Coordinates (Angstroms)
 Number     Number       Type             X           Y           Z
 ---------------------------------------------------------------------
      1          6           0       -0.415973    0.657600    0.000000
      2          6           0        0.415973   -0.657600    0.000000
      3          1           0       -1.356339    0.522603    0.553167
      4          1           0       -0.662273    0.961643   -1.027326
      5          1           0        0.147441    1.473837    0.474160
      6          1           0       -0.147441   -1.473837   -0.474160
      7          1           0        0.662273   -0.961643    1.027326
      8          1           0        1.356339   -0.522603   -0.553167
 ---------------------------------------------------------------------
 Rotational constants (GHZ):     79.0329872     19.4674598     19.4674592
 Standard basis: 3-21G (6D, 7F)
 There are    15 symmetry adapted cartesian basis functions of AG  symmetry.
 There are    15 symmetry adapted cartesian basis functions of AU  symmetry.
 There are    15 symmetry adapted basis functions of AG  symmetry.
 There are    15 symmetry adapted basis functions of AU  symmetry.
    30 basis functions,    48 primitive gaussians,    30 cartesian basis functions
     9 alpha electrons        9 beta electrons
       nuclear repulsion energy        41.7679081833 Hartrees.
 NAtoms=    8 NActive=    8 NUniq=    4 SFac= 4.00D+00 NAtFMM=   60 NAOKFM=F Big=F
 Integral buffers will be    131072 words long.
 Raffenetti 1 integral format.
 Two-electron integral symmetry is turned on.
 One-electron integrals computed using PRISM.
 NBasis=    30 RedAO= T EigKep=  1.41D-02  NBF=    15    15
 NBsUse=    30 1.00D-06 EigRej= -1.00D+00 NBFU=    15    15
 Initial guess from the checkpoint file:  "/scr/Gau-23669.chk"
 B after Tr=     0.000000    0.000000    0.000000
         Rot=    1.000000    0.000000    0.000000    0.000000 Ang=   0.00 deg.
 Initial guess orbital symmetries:
       Occupied  (AU) (AG) (AG) (AU) (AU) (AU) (AG) (AG) (AG)
       Virtual   (AG) (AG) (AG) (AG) (AG) (AG) (AG) (AG) (AG) (AG)
                 (AU) (AU) (AU) (AU) (AU) (AU) (AU) (AU) (AU) (AU)
                 (AU)
 Keep R1 ints in memory in symmetry-blocked form, NReq=940922.
 Requested convergence on RMS density matrix=1.00D-08 within 128 cycles.
 Requested convergence on MAX density matrix=1.00D-06.
 Requested convergence on             energy=1.00D-06.
 No special actions if energy rises.
 SCF Done:  E(RHF) =  -78.7929128819     A.U. after    7 cycles
            NFock=  7  Conv=0.13D-08     -V/T= 2.0038
 ExpMin= 1.83D-01 ExpMax= 1.72D+02 ExpMxC= 1.72D+02 IAcc=3 IRadAn=         5 AccDes= 0.00D+00
 HarFok:  IExCor=  205 AccDes= 0.00D+00 IRadAn=         5 IDoV=-2 UseB2=F ITyADJ=14
 ICtDFT= 12500011 ScaDFX=  1.000000  1.000000  1.000000  1.000000
 Range of M.O.s used for correlation:     3    30
 NBasis=    30 NAE=     9 NBE=     9 NFC=     2 NFV=     0
 NROrb=     28 NOA=     7 NOB=     7 NVA=    21 NVB=    21
 Semi-Direct transformation.
 ModeAB=           4 MOrb=             7 LenV=      33431936
 LASXX=        30133 LTotXX=       30133 LenRXX=       63623
 LTotAB=       33490 MaxLAS=       51744 LenRXY=           0
 NonZer=       93756 LenScr=      785920 LnRSAI=       51744
 LnScr1=      785920 LExtra=           0 Total=      1687207
 MaxDsk=          -1 SrtSym=           T ITran=            4
 JobTyp=0 Pass  1:  I=   1 to   7.
 (rs|ai) integrals will be sorted in core.
 Spin components of T(2) and E(2):
     alpha-alpha T2 =       0.6389538189D-02 E2=     -0.1748654204D-01
     alpha-beta  T2 =       0.5618449125D-01 E2=     -0.1540742286D+00
     beta-beta   T2 =       0.6389538189D-02 E2=     -0.1748654204D-01
 ANorm=    0.1033906943D+01
 E2 =    -0.1890473127D+00 EUMP2 =    -0.78981960194599D+02
 Keep R2 and R3 ints in memory in symmetry-blocked form, NReq=911104.
 Iterations=  50 Convergence= 0.100D-07
 Iteration Nr.   1
 **********************
 DD1Dir will call FoFMem   1 times, MxPair=        56
 NAB=    28 NAA=     0 NBB=     0.
 MP4(R+Q)=  0.12595294D-02
 E3=       -0.21981394D-01        EUMP3=      -0.79003941589D+02
 E4(DQ)=   -0.57228178D-02        UMP4(DQ)=   -0.79009664406D+02
 E4(SDQ)=  -0.65195433D-02        UMP4(SDQ)=  -0.79010461132D+02
 DE(Corr)= -0.20969953     E(Corr)=     -79.002612412    
 NORM(A)=   0.10442532D+01
 Iteration Nr.   2
 **********************
 DD1Dir will call FoFMem   1 times, MxPair=        56
 NAB=    28 NAA=     0 NBB=     0.
 DE(Corr)= -0.21707874     E(CORR)=     -79.009991620     Delta=-7.38D-03
 NORM(A)=   0.10483931D+01
 Iteration Nr.   3
 **********************
 DD1Dir will call FoFMem   1 times, MxPair=        56
 NAB=    28 NAA=     0 NBB=     0.
 DE(Corr)= -0.21943810     E(CORR)=     -79.012350987     Delta=-2.36D-03
 NORM(A)=   0.10490255D+01
 Iteration Nr.   4
 **********************
 DD1Dir will call FoFMem   1 times, MxPair=        56
 NAB=    28 NAA=     0 NBB=     0.
 DE(Corr)= -0.21988197     E(CORR)=     -79.012794850     Delta=-4.44D-04
 NORM(A)=   0.10490906D+01
 Iteration Nr.   5
 **********************
 DD1Dir will call FoFMem   1 times, MxPair=        56
 NAB=    28 NAA=     0 NBB=     0.
 DE(Corr)= -0.21991045     E(CORR)=     -79.012823329     Delta=-2.85D-05
 NORM(A)=   0.10490903D+01
 Iteration Nr.   6
 **********************
 DD1Dir will call FoFMem   1 times, MxPair=        56
 NAB=    28 NAA=     0 NBB=     0.
 DE(Corr)= -0.21991064     E(CORR)=     -79.012823523     Delta=-1.94D-07
 NORM(A)=   0.10490897D+01
 Iteration Nr.   7
 **********************
 DD1Dir will call FoFMem   1 times, MxPair=        56
 NAB=    28 NAA=     0 NBB=     0.
 DE(Corr)= -0.21991057     E(CORR)=     -79.012823447     Delta= 7.60D-08
 NORM(A)=   0.10490899D+01
 Iteration Nr.   8
 **********************
 DD1Dir will call FoFMem   1 times, MxPair=        56
 NAB=    28 NAA=     0 NBB=     0.
 DE(Corr)= -0.21991070     E(CORR)=     -79.012823578     Delta=-1.31D-07
 NORM(A)=   0.10490898D+01
 Iteration Nr.   9
 **********************
 DD1Dir will call FoFMem   1 times, MxPair=        56
 NAB=    28 NAA=     0 NBB=     0.
 DE(Corr)= -0.21991070     E(CORR)=     -79.012823583     Delta=-5.03D-09
 NORM(A)=   0.10490898D+01
 Iteration Nr.  10
 **********************
 DD1Dir will call FoFMem   1 times, MxPair=        56
 NAB=    28 NAA=     0 NBB=     0.
 DE(Corr)= -0.21991070     E(CORR)=     -79.012823578     Delta= 4.47D-09
 NORM(A)=   0.10490898D+01
 Iteration Nr.  11
 **********************
 DD1Dir will call FoFMem   1 times, MxPair=        56
 NAB=    28 NAA=     0 NBB=     0.
 DE(Corr)= -0.21991069     E(CORR)=     -79.012823574     Delta= 4.55D-09
 NORM(A)=   0.10490898D+01
 Largest amplitude= 5.37D-02

 Z-AMPLITUDE ITERATIONS

 Iteration Nr.   1
 **********************
 DD1Dir will call FoFMem   1 times, MxPair=        56
 NAB=    28 NAA=     0 NBB=     0.
 DE(Z)  -0.21731810D+00          E(Z)=    -0.79010230978D+02
 NORM(A)=   0.10490899D+01
 Iteration Nr.   2
 **********************
 DD1Dir will call FoFMem   1 times, MxPair=        56
 NAB=    28 NAA=     0 NBB=     0.
 DE(Z)  -0.21731814D+00          E(Z)=    -0.79010231026D+02
 NORM(A)=   0.10490899D+01
 Iteration Nr.   3
 **********************
 DD1Dir will call FoFMem   1 times, MxPair=        56
 NAB=    28 NAA=     0 NBB=     0.
 DE(Z)  -0.21731815D+00          E(Z)=    -0.79010231035D+02
 NORM(A)=   0.10490900D+01
 Iteration Nr.   4
 **********************
 DD1Dir will call FoFMem   1 times, MxPair=        56
 NAB=    28 NAA=     0 NBB=     0.
 DE(Z)  -0.21731817D+00          E(Z)=    -0.79010231051D+02
 NORM(A)=   0.10490901D+01
 Iteration Nr.   5
 **********************
 DD1Dir will call FoFMem   1 times, MxPair=        56
 NAB=    28 NAA=     0 NBB=     0.
 DE(Z)  -0.21731821D+00          E(Z)=    -0.79010231091D+02
 NORM(A)=   0.10474063D+01
 Iteration Nr.   6
 **********************
 DD1Dir will call FoFMem   1 times, MxPair=        56
 NAB=    28 NAA=     0 NBB=     0.
 DE(Z)  -0.21648303D+00          E(Z)=    -0.79009395911D+02
 NORM(A)=   0.10474136D+01
 Iteration Nr.   7
 **********************
 DD1Dir will call FoFMem   1 times, MxPair=        56
 NAB=    28 NAA=     0 NBB=     0.
 DE(Z)  -0.21648751D+00          E(Z)=    -0.79009400390D+02
 NORM(A)=   0.10474158D+01
 Iteration Nr.   8
 **********************
 DD1Dir will call FoFMem   1 times, MxPair=        56
 NAB=    28 NAA=     0 NBB=     0.
 DE(Z)  -0.21648904D+00          E(Z)=    -0.79009401920D+02
 NORM(A)=   0.10474161D+01
 Iteration Nr.   9
 **********************
 DD1Dir will call FoFMem   1 times, MxPair=        56
 NAB=    28 NAA=     0 NBB=     0.
 DE(Z)  -0.21648926D+00          E(Z)=    -0.79009402143D+02
 NORM(A)=   0.10474162D+01
 Iteration Nr.  10
 **********************
 DD1Dir will call FoFMem   1 times, MxPair=        56
 NAB=    28 NAA=     0 NBB=     0.
 DE(Z)  -0.21648931D+00          E(Z)=    -0.79009402192D+02
 NORM(A)=   0.10474162D+01
 Iteration Nr.  11
 **********************
 DD1Dir will call FoFMem   1 times, MxPair=        56
 NAB=    28 NAA=     0 NBB=     0.
 DE(Z)  -0.21648931D+00          E(Z)=    -0.79009402194D+02
 NORM(A)=   0.10474162D+01
 Discarding MO integrals.
          IDoAtm=11111111
          Differentiating once with respect to electric field.
                with respect to dipole field.
          Differentiating once with respect to nuclear coordinates.
 Keep R1 ints in memory in symmetry-blocked form, NReq=923085.
          There are     1 degrees of freedom in the 1st order CPHF.  IDoFFX=0 NUNeed=     1.
 LinEq1:  Iter=  0 NonCon=     1 RMS=3.86D-03 Max=2.41D-02 NDo=     1
 AX will form     1 AO Fock derivatives at one time.
 LinEq1:  Iter=  1 NonCon=     1 RMS=1.58D-03 Max=9.73D-03 NDo=     1
 LinEq1:  Iter=  2 NonCon=     1 RMS=1.12D-04 Max=7.32D-04 NDo=     1
 LinEq1:  Iter=  3 NonCon=     1 RMS=8.17D-06 Max=4.19D-05 NDo=     1
 LinEq1:  Iter=  4 NonCon=     1 RMS=4.46D-07 Max=2.68D-06 NDo=     1
 LinEq1:  Iter=  5 NonCon=     1 RMS=2.82D-08 Max=1.64D-07 NDo=     1
 LinEq1:  Iter=  6 NonCon=     1 RMS=1.64D-09 Max=7.43D-09 NDo=     1
 LinEq1:  Iter=  7 NonCon=     0 RMS=9.19D-11 Max=6.81D-10 NDo=     1
 Linear equations converged to 1.000D-10 1.000D-09 after     7 iterations.
 End of Minotr F.D. properties file   721 does not exist.
 End of Minotr F.D. properties file   722 does not exist.
 End of Minotr F.D. properties file   788 does not exist.
 Calling FoFJK, ICntrl=  10002127 FMM=F ISym2X=1 I1Cent= 0 IOpClX= 0 NMat=1 NMatS=1 NMatT=0.
 ***** Axes restored to original set *****
 -------------------------------------------------------------------
 Center     Atomic                   Forces (Hartrees/Bohr)
 Number     Number              X              Y              Z
 -------------------------------------------------------------------
      1        6          -0.000216658    0.000342574    0.000000015
      2        6           0.000216658   -0.000342574   -0.000000015
      3        1           0.000102259    0.000004371   -0.000056645
      4        1           0.000031179   -0.000040589    0.000105172
      5        1          -0.000051708   -0.000092989   -0.000048526
      6        1           0.000051708    0.000092989    0.000048526
      7        1          -0.000031179    0.000040589   -0.000105172
      8        1          -0.000102259   -0.000004371    0.000056645
 -------------------------------------------------------------------
 Cartesian Forces:  Max     0.000342574 RMS     0.000130811

 GradGradGradGradGradGradGradGradGradGradGradGradGradGradGradGradGradGrad
 Berny optimization.
 Using GEDIIS/GDIIS optimizer.
 FormGI is forming the generalized inverse of G from B-inverse, IUseBI=4.
 Internal  Forces:  Max     0.000252450 RMS     0.000072336
 Search for a local minimum.
 Step number   3 out of a maximum of   38
 All quantities printed in internal units (Hartrees-Bohrs-Radians)
 Mixed Optimization -- En-DIIS/RFO-DIIS
 Swapping is turned off.
 Update second derivatives using D2CorX and points    1    2    3
 DE= -1.64D-05 DEPred=-1.64D-05 R= 1.00D+00
 TightC=F SS=  1.41D+00  RLast= 1.26D-02 DXNew= 5.0454D-01 3.7805D-02
 Trust test= 1.00D+00 RLast= 1.26D-02 DXMaxT set to 3.00D-01
 ITU=  1  1  0
     Eigenvalues ---    0.00280   0.05521   0.05521   0.05521   0.05521
     Eigenvalues ---    0.16000   0.16000   0.16000   0.16000   0.16000
     Eigenvalues ---    0.16147   0.32011   0.34549   0.34549   0.34549
     Eigenvalues ---    0.34549   0.34549   0.35576
 En-DIIS/RFO-DIIS IScMMF=        0 using points:     3    2
 RFO step:  Lambda=-2.52339997D-07.
 DidBck=F Rises=F RFO-DIIS coefs:    0.97585    0.02415
 Iteration  1 RMS(Cart)=  0.00014792 RMS(Int)=  0.00000008
 Iteration  2 RMS(Cart)=  0.00000001 RMS(Int)=  0.00000008
 ClnCor:  largest displacement from symmetrization is 1.74D-08 for atom     6.
 Variable       Old X    -DE/DX   Delta X   Delta X   Delta X     New X
                                 (Linear)    (Quad)   (Total)
    R1        2.94087   0.00025   0.00012   0.00066   0.00077   2.94164
    R2        2.07741  -0.00012   0.00000  -0.00033  -0.00033   2.07709
    R3        2.07741  -0.00012   0.00000  -0.00033  -0.00033   2.07709
    R4        2.07741  -0.00012   0.00000  -0.00033  -0.00033   2.07709
    R5        2.07741  -0.00012   0.00000  -0.00033  -0.00033   2.07709
    R6        2.07741  -0.00012   0.00000  -0.00033  -0.00033   2.07709
    R7        2.07741  -0.00012   0.00000  -0.00033  -0.00033   2.07709
    A1        1.93212  -0.00001   0.00008  -0.00019  -0.00011   1.93200
    A2        1.93212  -0.00001   0.00008  -0.00019  -0.00011   1.93200
    A3        1.93211  -0.00001   0.00008  -0.00019  -0.00011   1.93200
    A4        1.88867   0.00001  -0.00008   0.00020   0.00012   1.88879
    A5        1.88867   0.00001  -0.00008   0.00020   0.00012   1.88879
    A6        1.88867   0.00001  -0.00008   0.00020   0.00012   1.88879
    A7        1.93211  -0.00001   0.00008  -0.00019  -0.00011   1.93200
    A8        1.93212  -0.00001   0.00008  -0.00019  -0.00011   1.93200
    A9        1.93212  -0.00001   0.00008  -0.00019  -0.00011   1.93200
   A10        1.88867   0.00001  -0.00008   0.00020   0.00012   1.88879
   A11        1.88867   0.00001  -0.00008   0.00020   0.00012   1.88879
   A12        1.88867   0.00001  -0.00008   0.00020   0.00012   1.88879
    D1        1.04720   0.00000   0.00000   0.00000   0.00000   1.04720
    D2       -1.04720   0.00000   0.00000   0.00000   0.00000  -1.04720
    D3        3.14159   0.00000   0.00000   0.00000   0.00000   3.14159
    D4       -1.04720   0.00000   0.00000   0.00000   0.00000  -1.04720
    D5        3.14159   0.00000   0.00000   0.00000   0.00000   3.14159
    D6        1.04720   0.00000   0.00000   0.00000   0.00000   1.04720
    D7        3.14159   0.00000   0.00000   0.00000   0.00000   3.14159
    D8        1.04720   0.00000   0.00000   0.00000   0.00000   1.04720
    D9       -1.04720   0.00000   0.00000   0.00000   0.00000  -1.04720
         Item               Value     Threshold  Converged?
 Maximum Force            0.000252     0.000450     YES
 RMS     Force            0.000072     0.000300     YES
 Maximum Displacement     0.000326     0.001800     YES
 RMS     Displacement     0.000148     0.001200     YES
 Predicted change in Energy=-2.198728D-07
 Optimization completed.
    -- Stationary point found.
                           ----------------------------
                           !   Optimized Parameters   !
                           ! (Angstroms and Degrees)  !
 --------------------------                            --------------------------
 ! Name  Definition              Value          Derivative Info.                !
 --------------------------------------------------------------------------------
 ! R1    R(1,2)                  1.5562         -DE/DX =    0.0003              !
 ! R2    R(1,3)                  1.0993         -DE/DX =   -0.0001              !
 ! R3    R(1,4)                  1.0993         -DE/DX =   -0.0001              !
 ! R4    R(1,5)                  1.0993         -DE/DX =   -0.0001              !
 ! R5    R(2,6)                  1.0993         -DE/DX =   -0.0001              !
 ! R6    R(2,7)                  1.0993         -DE/DX =   -0.0001              !
 ! R7    R(2,8)                  1.0993         -DE/DX =   -0.0001              !
 ! A1    A(2,1,3)              110.702          -DE/DX =    0.0                 !
 ! A2    A(2,1,4)              110.702          -DE/DX =    0.0                 !
 ! A3    A(2,1,5)              110.702          -DE/DX =    0.0                 !
 ! A4    A(3,1,4)              108.2129         -DE/DX =    0.0                 !
 ! A5    A(3,1,5)              108.2129         -DE/DX =    0.0                 !
 ! A6    A(4,1,5)              108.2128         -DE/DX =    0.0                 !
 ! A7    A(1,2,6)              110.702          -DE/DX =    0.0                 !
 ! A8    A(1,2,7)              110.702          -DE/DX =    0.0                 !
 ! A9    A(1,2,8)              110.702          -DE/DX =    0.0                 !
 ! A10   A(6,2,7)              108.2128         -DE/DX =    0.0                 !
 ! A11   A(6,2,8)              108.2129         -DE/DX =    0.0                 !
 ! A12   A(7,2,8)              108.2129         -DE/DX =    0.0                 !
 ! D1    D(3,1,2,6)             60.0            -DE/DX =    0.0                 !
 ! D2    D(3,1,2,7)            -60.0            -DE/DX =    0.0                 !
 ! D3    D(3,1,2,8)            180.0            -DE/DX =    0.0                 !
 ! D4    D(4,1,2,6)            -60.0            -DE/DX =    0.0                 !
 ! D5    D(4,1,2,7)            180.0            -DE/DX =    0.0                 !
 ! D6    D(4,1,2,8)             60.0            -DE/DX =    0.0                 !
 ! D7    D(5,1,2,6)            180.0            -DE/DX =    0.0                 !
 ! D8    D(5,1,2,7)             60.0            -DE/DX =    0.0                 !
 ! D9    D(5,1,2,8)            -60.0            -DE/DX =    0.0                 !
 --------------------------------------------------------------------------------
 GradGradGradGradGradGradGradGradGradGradGradGradGradGradGradGradGradGrad

                          Input orientation:                          
 ---------------------------------------------------------------------
 Center     Atomic      Atomic             Coordinates (Angstroms)
 Number     Number       Type             X           Y           Z
 ---------------------------------------------------------------------
      1          6           0       -1.775063    1.613325    0.000000
      2          6           0       -0.943117    0.298125    0.000000
      3          1           0       -2.715429    1.478328    0.553167
      4          1           0       -2.021363    1.917368   -1.027326
      5          1           0       -1.211649    2.429562    0.474160
      6          1           0       -1.506531   -0.518112   -0.474160
      7          1           0       -0.696817   -0.005918    1.027326
      8          1           0       -0.002751    0.433122   -0.553167
 ---------------------------------------------------------------------
                    Distance matrix (angstroms):
                    1          2          3          4          5
     1  C    0.000000
     2  C    1.556242   0.000000
     3  H    1.099320   2.199991   0.000000
     4  H    1.099320   2.199991   1.781135   0.000000
     5  H    1.099320   2.199991   1.781135   1.781135   0.000000
     6  H    2.199991   1.099320   2.550020   2.550021   3.110473
     7  H    2.199991   1.099320   2.550021   3.110474   2.550021
     8  H    2.199991   1.099320   3.110474   2.550021   2.550020
                    6          7          8
     6  H    0.000000
     7  H    1.781135   0.000000
     8  H    1.781135   1.781135   0.000000
 Stoichiometry    C2H6
 Framework group  CI[X(C2H6)]
 Deg. of freedom     9
 Full point group                 CI      NOp   2
 Largest Abelian subgroup         CI      NOp   2
 Largest concise Abelian subgroup CI      NOp   2
                         Standard orientation:                         
 ---------------------------------------------------------------------
 Center     Atomic      Atomic             Coordinates (Angstroms)
 Number     Number       Type             X           Y           Z
 ---------------------------------------------------------------------
      1          6           0       -0.415973    0.657600    0.000000
      2          6           0        0.415973   -0.657600    0.000000
      3          1           0       -1.356339    0.522603    0.553167
      4          1           0       -0.662273    0.961643   -1.027326
      5          1           0        0.147441    1.473837    0.474160
      6          1           0       -0.147441   -1.473837   -0.474160
      7          1           0        0.662273   -0.961643    1.027326
      8          1           0        1.356339   -0.522603   -0.553167
 ---------------------------------------------------------------------
 Rotational constants (GHZ):     79.0329872     19.4674598     19.4674592

 **********************************************************************

            Population analysis using the SCF density.

 **********************************************************************

 Orbital symmetries:
       Occupied  (AU) (AG) (AG) (AU) (AU) (AU) (AG) (AG) (AG)
       Virtual   (AG) (AU) (AU) (AU) (AG) (AG) (AU) (AU) (AU) (AG)
                 (AU) (AG) (AG) (AG) (AG) (AG) (AU) (AU) (AU) (AG)
                 (AU)
 The electronic state is 1-AG.
 Alpha  occ. eigenvalues --  -11.15914 -11.15893  -1.01205  -0.84087  -0.59413
 Alpha  occ. eigenvalues --   -0.59413  -0.49906  -0.48434  -0.48434
 Alpha virt. eigenvalues --    0.27607   0.33485   0.33485   0.33729   0.36707
 Alpha virt. eigenvalues --    0.36707   0.41817   0.91092   0.91092   0.98441
 Alpha virt. eigenvalues --    1.06169   1.09546   1.09546   1.27090   1.35392
 Alpha virt. eigenvalues --    1.35392   1.36016   1.36016   1.43025   1.93185
 Alpha virt. eigenvalues --    2.28822
          Condensed to atoms (all electrons):
               1          2          3          4          5          6
     1  C    5.340381   0.245779   0.376519   0.376519   0.376519  -0.041172
     2  C    0.245779   5.340381  -0.041172  -0.041172  -0.041172   0.376519
     3  H    0.376519  -0.041172   0.520829  -0.026501  -0.026501  -0.001622
     4  H    0.376519  -0.041172  -0.026501   0.520829  -0.026501  -0.001622
     5  H    0.376519  -0.041172  -0.026501  -0.026501   0.520829   0.002669
     6  H   -0.041172   0.376519  -0.001622  -0.001622   0.002669   0.520829
     7  H   -0.041172   0.376519  -0.001622   0.002669  -0.001622  -0.026501
     8  H   -0.041172   0.376519   0.002669  -0.001622  -0.001622  -0.026501
               7          8
     1  C   -0.041172  -0.041172
     2  C    0.376519   0.376519
     3  H   -0.001622   0.002669
     4  H    0.002669  -0.001622
     5  H   -0.001622  -0.001622
     6  H   -0.026501  -0.026501
     7  H    0.520829  -0.026501
     8  H   -0.026501   0.520829
 Mulliken charges:
               1
     1  C   -0.592201
     2  C   -0.592201
     3  H    0.197400
     4  H    0.197400
     5  H    0.197400
     6  H    0.197400
     7  H    0.197400
     8  H    0.197400
 Sum of Mulliken charges =   0.00000
 Mulliken charges with hydrogens summed into heavy atoms:
               1
     1  C    0.000000
     2  C    0.000000
 Electronic spatial extent (au):  <R**2>=            111.8108
 Charge=              0.0000 electrons
 Dipole moment (field-independent basis, Debye):
    X=              0.0000    Y=              0.0000    Z=              0.0000  Tot=              0.0000
 Quadrupole moment (field-independent basis, Debye-Ang):
   XX=            -15.2381   YY=            -15.4473   ZZ=            -15.0986
   XY=              0.2205   XZ=              0.0000   YZ=              0.0000
 Traceless Quadrupole moment (field-independent basis, Debye-Ang):
   XX=              0.0232   YY=             -0.1859   ZZ=              0.1627
   XY=              0.2205   XZ=              0.0000   YZ=              0.0000
 Octapole moment (field-independent basis, Debye-Ang**2):
  XXX=              0.0000  YYY=              0.0000  ZZZ=              0.0000  XYY=              0.0000
  XXY=              0.0000  XXZ=              0.0000  XZZ=              0.0000  YZZ=              0.0000
  YYZ=              0.0000  XYZ=              0.0000
 Hexadecapole moment (field-independent basis, Debye-Ang**3):
 XXXX=            -46.1500 YYYY=            -74.4161 ZZZZ=            -28.4024 XXXY=             14.3118
 XXXZ=             -1.7132 YYYX=             15.9625 YYYZ=              1.0837 ZZZX=              0.7996
 ZZZY=             -1.2640 XXYY=            -20.8215 XXZZ=            -12.0942 YYZZ=            -16.6653
 XXYZ=              0.1803 YYXZ=              0.9136 ZZXY=              4.3528
 N-N= 4.176790818328D+01 E-N=-2.659585156492D+02  KE= 7.849086138729D+01
 Symmetry AG   KE= 4.068816447199D+01
 Symmetry AU   KE= 3.780269691530D+01
 1\1\GINC-N0298\FOpt\RCCSD-FC\3-21G\C2H6\TAIYUPAN\23-Feb-2017\0\\#n CCS
 D/3-21G Opt\\CH3_CCSD/3-21G\\0,1\C,-1.7750631897,1.6133254241,0.000000
 127\C,-0.9431168103,0.2981245759,-0.000000127\H,-2.7154287818,1.478327
 6331,0.5531666857\H,-2.0213628524,1.9173678074,-1.0273263797\H,-1.2116
 489755,2.4295616266,0.4741603192\H,-1.5065310245,-0.5181116266,-0.4741
 603192\H,-0.6968171476,-0.0059178074,1.0273263797\H,-0.0027512182,0.43
 31223669,-0.5531666857\\Version=ES64L-G09RevE.01\State=1-AG\HF=-78.792
 9129\MP2=-78.9819602\MP3=-79.0039416\MP4D=-79.0109239\MP4DQ=-79.009664
 4\MP4SDQ=-79.0104611\CCSD=-79.0128236\RMSD=1.295e-09\RMSF=1.308e-04\Di
 pole=0.,0.,0.\PG=CI [X(C2H6)]\\@


 VIRTUE IS LEARNED AT YOUR MOTHER'S KNEE,
 VICES ARE PICKED UP AT SOME OTHER JOINT.
 Job cpu time:       0 days  0 hours  1 minutes 15.9 seconds.
 File lengths (MBytes):  RWF=     19 Int=      0 D2E=      0 Chk=      1 Scr=      1
 Normal termination of Gaussian 09 at Thu Feb 23 18:26:35 2017.
