 Entering Gaussian System, Link 0=g09
 Input=CH_C_3G.com
 Output=CH_C_3G.log
 Initial command:
 /sw/contrib/gaussian/g09/E01/g09/l1.exe "/scr/Gau-21051.inp" -scrdir="/scr/"
 Entering Link 1 = /sw/contrib/gaussian/g09/E01/g09/l1.exe PID=     21052.
  
 Copyright (c) 1988,1990,1992,1993,1995,1998,2003,2009,2015,
            Gaussian, Inc.  All Rights Reserved.
  
 This is part of the Gaussian(R) 09 program.  It is based on
 the Gaussian(R) 03 system (copyright 2003, Gaussian, Inc.),
 the Gaussian(R) 98 system (copyright 1998, Gaussian, Inc.),
 the Gaussian(R) 94 system (copyright 1995, Gaussian, Inc.),
 the Gaussian 92(TM) system (copyright 1992, Gaussian, Inc.),
 the Gaussian 90(TM) system (copyright 1990, Gaussian, Inc.),
 the Gaussian 88(TM) system (copyright 1988, Gaussian, Inc.),
 the Gaussian 86(TM) system (copyright 1986, Carnegie Mellon
 University), and the Gaussian 82(TM) system (copyright 1983,
 Carnegie Mellon University). Gaussian is a federally registered
 trademark of Gaussian, Inc.
  
 This software contains proprietary and confidential information,
 including trade secrets, belonging to Gaussian, Inc.
  
 This software is provided under written license and may be
 used, copied, transmitted, or stored only in accord with that
 written license.
  
 The following legend is applicable only to US Government
 contracts under FAR:
  
                    RESTRICTED RIGHTS LEGEND
  
 Use, reproduction and disclosure by the US Government is
 subject to restrictions as set forth in subparagraphs (a)
 and (c) of the Commercial Computer Software - Restricted
 Rights clause in FAR 52.227-19.
  
 Gaussian, Inc.
 340 Quinnipiac St., Bldg. 40, Wallingford CT 06492
  
  
 ---------------------------------------------------------------
 Warning -- This program may not be used in any manner that
 competes with the business of Gaussian, Inc. or will provide
 assistance to any competitor of Gaussian, Inc.  The licensee
 of this program is prohibited from giving any competitor of
 Gaussian, Inc. access to this program.  By using this program,
 the user acknowledges that Gaussian, Inc. is engaged in the
 business of creating and licensing software in the field of
 computational chemistry and represents and warrants to the
 licensee that it is not a competitor of Gaussian, Inc. and that
 it will not use this program in any manner prohibited above.
 ---------------------------------------------------------------
  

 Cite this work as:
 Gaussian 09, Revision E.01,
 M. J. Frisch, G. W. Trucks, H. B. Schlegel, G. E. Scuseria, 
 M. A. Robb, J. R. Cheeseman, G. Scalmani, V. Barone, B. Mennucci, 
 G. A. Petersson, H. Nakatsuji, M. Caricato, X. Li, H. P. Hratchian, 
 A. F. Izmaylov, J. Bloino, G. Zheng, J. L. Sonnenberg, M. Hada, 
 M. Ehara, K. Toyota, R. Fukuda, J. Hasegawa, M. Ishida, T. Nakajima, 
 Y. Honda, O. Kitao, H. Nakai, T. Vreven, J. A. Montgomery, Jr., 
 J. E. Peralta, F. Ogliaro, M. Bearpark, J. J. Heyd, E. Brothers, 
 K. N. Kudin, V. N. Staroverov, T. Keith, R. Kobayashi, J. Normand, 
 K. Raghavachari, A. Rendell, J. C. Burant, S. S. Iyengar, J. Tomasi, 
 M. Cossi, N. Rega, J. M. Millam, M. Klene, J. E. Knox, J. B. Cross, 
 V. Bakken, C. Adamo, J. Jaramillo, R. Gomperts, R. E. Stratmann, 
 O. Yazyev, A. J. Austin, R. Cammi, C. Pomelli, J. W. Ochterski, 
 R. L. Martin, K. Morokuma, V. G. Zakrzewski, G. A. Voth, 
 P. Salvador, J. J. Dannenberg, S. Dapprich, A. D. Daniels, 
 O. Farkas, J. B. Foresman, J. V. Ortiz, J. Cioslowski, 
 and D. J. Fox, Gaussian, Inc., Wallingford CT, 2013.
 
 ******************************************
 Gaussian 09:  ES64L-G09RevE.01 30-Nov-2015
                23-Feb-2017 
 ******************************************
 %NProcShared=8
 Will use up to    8 processors via shared memory.
 -----------------
 #n CCSD/3-21G Opt
 -----------------
 1/18=20,19=15,38=1/1,3;
 2/9=110,12=2,17=6,18=5,40=1/2;
 3/5=5,11=9,16=1,25=1,30=1,71=1/1,2,3;
 4//1;
 5/5=2,38=5/2;
 8/6=4,9=120000,10=1/1,4;
 9/5=7,15=1/13;
 11/28=-8,29=200,42=3/11;
 10/5=6/2;
 6/7=2,8=2,9=2,10=2/1;
 7/12=7/1,2,3,16;
 1/18=20,19=15/3(2);
 2/9=110/2;
 99//99;
 2/9=110/2;
 3/5=5,11=9,16=1,25=1,30=1,71=1/1,2,3;
 4/5=5,16=3,69=1/1;
 5/5=2,38=5/2;
 8/6=4,9=120000,10=1/1,4;
 9/5=7,15=1/13;
 11/28=-8,29=200,42=3/11;
 10/5=6/2;
 7/12=7/1,2,3,16;
 1/18=20,19=15/3(-9);
 2/9=110/2;
 6/7=2,8=2,9=2,10=2/1;
 99//99;
 -------------
 CH_CCSD/3-21G
 -------------
 Symbolic Z-matrix:
 Charge =  0 Multiplicity = 1
 C                     0.81212   0.92205   2.25756 
 C                    -0.25466   0.80282   1.70927 
 H                     1.74883   1.02674   2.739 
 H                    -1.19137   0.69814   1.22782 
 

 GradGradGradGradGradGradGradGradGradGradGradGradGradGradGradGradGradGrad
 Berny optimization.
 Initialization pass.
                           ----------------------------
                           !    Initial Parameters    !
                           ! (Angstroms and Degrees)  !
 --------------------------                            --------------------------
 ! Name  Definition              Value          Derivative Info.                !
 --------------------------------------------------------------------------------
 ! R1    R(1,2)                  1.2053         estimate D2E/DX2                !
 ! R2    R(1,3)                  1.0584         estimate D2E/DX2                !
 ! R3    R(2,4)                  1.0584         estimate D2E/DX2                !
 ! A1    L(2,1,3,-2,-1)        180.0001         estimate D2E/DX2                !
 ! A2    L(1,2,4,-2,-1)        180.0006         estimate D2E/DX2                !
 ! A3    L(2,1,3,-3,-2)        180.0002         estimate D2E/DX2                !
 ! A4    L(1,2,4,-3,-2)        180.0008         estimate D2E/DX2                !
 --------------------------------------------------------------------------------
 Trust Radius=3.00D-01 FncErr=1.00D-07 GrdErr=1.00D-07
 Number of steps in this run=     20 maximum allowed number of steps=    100.
 GradGradGradGradGradGradGradGradGradGradGradGradGradGradGradGradGradGrad

                          Input orientation:                          
 ---------------------------------------------------------------------
 Center     Atomic      Atomic             Coordinates (Angstroms)
 Number     Number       Type             X           Y           Z
 ---------------------------------------------------------------------
      1          6           0        0.812120    0.922050    2.257560
      2          6           0       -0.254660    0.802820    1.709270
      3          1           0        1.748830    1.026740    2.739000
      4          1           0       -1.191370    0.698140    1.227820
 ---------------------------------------------------------------------
                    Distance matrix (angstroms):
                    1          2          3          4
     1  C    0.000000
     2  C    1.205345   0.000000
     3  H    1.058381   2.263726   0.000000
     4  H    2.263730   1.058384   3.322111   0.000000
 Stoichiometry    C2H2
 Framework group  C*V[C*(HCCH)]
 Deg. of freedom     3
 Full point group                 C*V     NOp   4
 Largest Abelian subgroup         C2V     NOp   4
 Largest concise Abelian subgroup C1      NOp   1
                         Standard orientation:                         
 ---------------------------------------------------------------------
 Center     Atomic      Atomic             Coordinates (Angstroms)
 Number     Number       Type             X           Y           Z
 ---------------------------------------------------------------------
      1          6           0        0.000000    0.000000    0.602673
      2          6           0        0.000000    0.000000   -0.602672
      3          1           0        0.000000    0.000000    1.661054
      4          1           0        0.000000    0.000000   -1.661057
 ---------------------------------------------------------------------
 Rotational constants (GHZ):      0.0000000     35.3943217     35.3943217
 Standard basis: 3-21G (6D, 7F)
 There are    14 symmetry adapted cartesian basis functions of A1  symmetry.
 There are     0 symmetry adapted cartesian basis functions of A2  symmetry.
 There are     4 symmetry adapted cartesian basis functions of B1  symmetry.
 There are     4 symmetry adapted cartesian basis functions of B2  symmetry.
 There are    14 symmetry adapted basis functions of A1  symmetry.
 There are     0 symmetry adapted basis functions of A2  symmetry.
 There are     4 symmetry adapted basis functions of B1  symmetry.
 There are     4 symmetry adapted basis functions of B2  symmetry.
    22 basis functions,    36 primitive gaussians,    22 cartesian basis functions
     7 alpha electrons        7 beta electrons
       nuclear repulsion energy        24.7692072136 Hartrees.
 NAtoms=    4 NActive=    4 NUniq=    4 SFac= 1.00D+00 NAtFMM=   60 NAOKFM=F Big=F
 Integral buffers will be    131072 words long.
 Raffenetti 1 integral format.
 Two-electron integral symmetry is turned on.
 One-electron integrals computed using PRISM.
 NBasis=    22 RedAO= T EigKep=  4.68D-03  NBF=    14     0     4     4
 NBsUse=    22 1.00D-06 EigRej= -1.00D+00 NBFU=    14     0     4     4
 ExpMin= 1.83D-01 ExpMax= 1.72D+02 ExpMxC= 1.72D+02 IAcc=1 IRadAn=         1 AccDes= 0.00D+00
 Harris functional with IExCor=  205 and IRadAn=       1 diagonalized for initial guess.
 HarFok:  IExCor=  205 AccDes= 0.00D+00 IRadAn=         1 IDoV= 1 UseB2=F ITyADJ=14
 ICtDFT=  3500011 ScaDFX=  1.000000  1.000000  1.000000  1.000000
 FoFCou: FMM=F IPFlag=           0 FMFlag=      100000 FMFlg1=           0
         NFxFlg=           0 DoJE=T BraDBF=F KetDBF=T FulRan=T
         wScrn=  0.000000 ICntrl=     500 IOpCl=  0 I1Cent=   200000004 NGrid=           0
         NMat0=    1 NMatS0=      1 NMatT0=    0 NMatD0=    1 NMtDS0=    0 NMtDT0=    0
 Petite list used in FoFCou.
 Initial guess orbital symmetries:
       Occupied  (SG) (SG) (SG) (SG) (SG) (PI) (PI)
       Virtual   (PI) (PI) (SG) (SG) (SG) (PI) (PI) (SG) (PI) (PI)
                 (SG) (SG) (SG) (SG) (SG)
 The electronic state of the initial guess is 1-SG.
 Keep R1 ints in memory in symmetry-blocked form, NReq=857908.
 Requested convergence on RMS density matrix=1.00D-08 within 128 cycles.
 Requested convergence on MAX density matrix=1.00D-06.
 Requested convergence on             energy=1.00D-06.
 No special actions if energy rises.
 SCF Done:  E(RHF) =  -76.3951554456     A.U. after    9 cycles
            NFock=  9  Conv=0.15D-08     -V/T= 2.0050
 ExpMin= 1.83D-01 ExpMax= 1.72D+02 ExpMxC= 1.72D+02 IAcc=3 IRadAn=         5 AccDes= 0.00D+00
 HarFok:  IExCor=  205 AccDes= 0.00D+00 IRadAn=         5 IDoV=-2 UseB2=F ITyADJ=14
 ICtDFT= 12500011 ScaDFX=  1.000000  1.000000  1.000000  1.000000
 Range of M.O.s used for correlation:     3    22
 NBasis=    22 NAE=     7 NBE=     7 NFC=     2 NFV=     0
 NROrb=     20 NOA=     5 NOB=     5 NVA=    15 NVB=    15
 Semi-Direct transformation.
 ModeAB=           2 MOrb=             5 LenV=      33441106
 LASXX=         4714 LTotXX=        4714 LenRXX=        4714
 LTotAB=        5768 MaxLAS=       25300 LenRXY=       25300
 NonZer=       27700 LenScr=      785920 LnRSAI=           0
 LnScr1=           0 LExtra=           0 Total=       815934
 MaxDsk=          -1 SrtSym=           F ITran=            4
 JobTyp=0 Pass  1:  I=   1 to   5.
 (rs|ai) integrals will be sorted in core.
 Spin components of T(2) and E(2):
     alpha-alpha T2 =       0.9895056894D-02 E2=     -0.2142925397D-01
     alpha-beta  T2 =       0.6460231296D-01 E2=     -0.1406997003D+00
     beta-beta   T2 =       0.9895056894D-02 E2=     -0.2142925397D-01
 ANorm=    0.1041341647D+01
 E2 =    -0.1835582083D+00 EUMP2 =    -0.76578713653894D+02
 Keep R2 and R3 ints in memory in symmetry-blocked form, NReq=834669.
 Iterations=  50 Convergence= 0.100D-07
 Iteration Nr.   1
 **********************
 DD1Dir will call FoFMem   1 times, MxPair=        30
 NAB=    15 NAA=     0 NBB=     0.
 MP4(R+Q)=  0.13968723D-02
 E3=       -0.39345548D-02        EUMP3=      -0.76582648209D+02
 E4(DQ)=   -0.53052939D-02        UMP4(DQ)=   -0.76587953503D+02
 E4(SDQ)=  -0.79417353D-02        UMP4(SDQ)=  -0.76590589944D+02
 DE(Corr)= -0.18593163     E(Corr)=     -76.581087073    
 NORM(A)=   0.10445847D+01
 Iteration Nr.   2
 **********************
 DD1Dir will call FoFMem   1 times, MxPair=        30
 NAB=    15 NAA=     0 NBB=     0.
 DE(Corr)= -0.19354100     E(CORR)=     -76.588696443     Delta=-7.61D-03
 NORM(A)=   0.10518408D+01
 Iteration Nr.   3
 **********************
 DD1Dir will call FoFMem   1 times, MxPair=        30
 NAB=    15 NAA=     0 NBB=     0.
 DE(Corr)= -0.19629785     E(CORR)=     -76.591453298     Delta=-2.76D-03
 NORM(A)=   0.10542697D+01
 Iteration Nr.   4
 **********************
 DD1Dir will call FoFMem   1 times, MxPair=        30
 NAB=    15 NAA=     0 NBB=     0.
 DE(Corr)= -0.19757332     E(CORR)=     -76.592728770     Delta=-1.28D-03
 NORM(A)=   0.10549213D+01
 Iteration Nr.   5
 **********************
 DD1Dir will call FoFMem   1 times, MxPair=        30
 NAB=    15 NAA=     0 NBB=     0.
 DE(Corr)= -0.19775626     E(CORR)=     -76.592911701     Delta=-1.83D-04
 NORM(A)=   0.10549446D+01
 Iteration Nr.   6
 **********************
 DD1Dir will call FoFMem   1 times, MxPair=        30
 NAB=    15 NAA=     0 NBB=     0.
 DE(Corr)= -0.19775786     E(CORR)=     -76.592913309     Delta=-1.61D-06
 NORM(A)=   0.10549486D+01
 Iteration Nr.   7
 **********************
 DD1Dir will call FoFMem   1 times, MxPair=        30
 NAB=    15 NAA=     0 NBB=     0.
 DE(Corr)= -0.19775854     E(CORR)=     -76.592913987     Delta=-6.78D-07
 NORM(A)=   0.10549509D+01
 Iteration Nr.   8
 **********************
 DD1Dir will call FoFMem   1 times, MxPair=        30
 NAB=    15 NAA=     0 NBB=     0.
 DE(Corr)= -0.19775889     E(CORR)=     -76.592914336     Delta=-3.49D-07
 NORM(A)=   0.10549506D+01
 Iteration Nr.   9
 **********************
 DD1Dir will call FoFMem   1 times, MxPair=        30
 NAB=    15 NAA=     0 NBB=     0.
 DE(Corr)= -0.19775895     E(CORR)=     -76.592914396     Delta=-5.93D-08
 NORM(A)=   0.10549506D+01
 Iteration Nr.  10
 **********************
 DD1Dir will call FoFMem   1 times, MxPair=        30
 NAB=    15 NAA=     0 NBB=     0.
 DE(Corr)= -0.19775889     E(CORR)=     -76.592914332     Delta= 6.34D-08
 NORM(A)=   0.10549505D+01
 Iteration Nr.  11
 **********************
 DD1Dir will call FoFMem   1 times, MxPair=        30
 NAB=    15 NAA=     0 NBB=     0.
 DE(Corr)= -0.19775886     E(CORR)=     -76.592914308     Delta= 2.37D-08
 NORM(A)=   0.10549505D+01
 Iteration Nr.  12
 **********************
 DD1Dir will call FoFMem   1 times, MxPair=        30
 NAB=    15 NAA=     0 NBB=     0.
 DE(Corr)= -0.19775885     E(CORR)=     -76.592914298     Delta= 1.03D-08
 NORM(A)=   0.10549505D+01
 Iteration Nr.  13
 **********************
 DD1Dir will call FoFMem   1 times, MxPair=        30
 NAB=    15 NAA=     0 NBB=     0.
 DE(Corr)= -0.19775885     E(CORR)=     -76.592914294     Delta= 4.06D-09
 NORM(A)=   0.10549505D+01
 Dominant configurations:
 ***********************
 Spin Case        I    J    A    B          Value
   ABAB           6    6    9    9      -0.121329D+00
   ABAB           7    7    8    8      -0.121329D+00
 Largest amplitude= 1.21D-01

 Z-AMPLITUDE ITERATIONS

 Iteration Nr.   1
 **********************
 DD1Dir will call FoFMem   1 times, MxPair=        30
 NAB=    15 NAA=     0 NBB=     0.
 DE(Z)  -0.19361338D+00          E(Z)=    -0.76588768828D+02
 NORM(A)=   0.10549504D+01
 Iteration Nr.   2
 **********************
 DD1Dir will call FoFMem   1 times, MxPair=        30
 NAB=    15 NAA=     0 NBB=     0.
 DE(Z)  -0.19361337D+00          E(Z)=    -0.76588768820D+02
 NORM(A)=   0.10549505D+01
 Iteration Nr.   3
 **********************
 DD1Dir will call FoFMem   1 times, MxPair=        30
 NAB=    15 NAA=     0 NBB=     0.
 DE(Z)  -0.19361339D+00          E(Z)=    -0.76588768831D+02
 NORM(A)=   0.10549505D+01
 Iteration Nr.   4
 **********************
 DD1Dir will call FoFMem   1 times, MxPair=        30
 NAB=    15 NAA=     0 NBB=     0.
 DE(Z)  -0.19361339D+00          E(Z)=    -0.76588768831D+02
 NORM(A)=   0.10549505D+01
 Iteration Nr.   5
 **********************
 DD1Dir will call FoFMem   1 times, MxPair=        30
 NAB=    15 NAA=     0 NBB=     0.
 DE(Z)  -0.19361339D+00          E(Z)=    -0.76588768831D+02
 NORM(A)=   0.10513044D+01
 Iteration Nr.   6
 **********************
 DD1Dir will call FoFMem   1 times, MxPair=        30
 NAB=    15 NAA=     0 NBB=     0.
 DE(Z)  -0.19259346D+00          E(Z)=    -0.76587748901D+02
 NORM(A)=   0.10515447D+01
 Iteration Nr.   7
 **********************
 DD1Dir will call FoFMem   1 times, MxPair=        30
 NAB=    15 NAA=     0 NBB=     0.
 DE(Z)  -0.19262059D+00          E(Z)=    -0.76587776033D+02
 NORM(A)=   0.10516616D+01
 Iteration Nr.   8
 **********************
 DD1Dir will call FoFMem   1 times, MxPair=        30
 NAB=    15 NAA=     0 NBB=     0.
 DE(Z)  -0.19265610D+00          E(Z)=    -0.76587811548D+02
 NORM(A)=   0.10516857D+01
 Iteration Nr.   9
 **********************
 DD1Dir will call FoFMem   1 times, MxPair=        30
 NAB=    15 NAA=     0 NBB=     0.
 DE(Z)  -0.19266114D+00          E(Z)=    -0.76587816585D+02
 NORM(A)=   0.10516886D+01
 Iteration Nr.  10
 **********************
 DD1Dir will call FoFMem   1 times, MxPair=        30
 NAB=    15 NAA=     0 NBB=     0.
 DE(Z)  -0.19266210D+00          E(Z)=    -0.76587817544D+02
 NORM(A)=   0.10516888D+01
 Iteration Nr.  11
 **********************
 DD1Dir will call FoFMem   1 times, MxPair=        30
 NAB=    15 NAA=     0 NBB=     0.
 DE(Z)  -0.19266213D+00          E(Z)=    -0.76587817572D+02
 NORM(A)=   0.10516888D+01
 Iteration Nr.  12
 **********************
 DD1Dir will call FoFMem   1 times, MxPair=        30
 NAB=    15 NAA=     0 NBB=     0.
 DE(Z)  -0.19266212D+00          E(Z)=    -0.76587817565D+02
 NORM(A)=   0.10516888D+01
 Iteration Nr.  13
 **********************
 DD1Dir will call FoFMem   1 times, MxPair=        30
 NAB=    15 NAA=     0 NBB=     0.
 DE(Z)  -0.19266212D+00          E(Z)=    -0.76587817564D+02
 NORM(A)=   0.10516888D+01
 Discarding MO integrals.
          IDoAtm=1111
          Differentiating once with respect to electric field.
                with respect to dipole field.
          Differentiating once with respect to nuclear coordinates.
 Keep R1 ints in memory in symmetry-blocked form, NReq=839657.
          There are     1 degrees of freedom in the 1st order CPHF.  IDoFFX=0 NUNeed=     1.
 LinEq1:  Iter=  0 NonCon=     1 RMS=9.25D-03 Max=6.18D-02 NDo=     1
 AX will form     1 AO Fock derivatives at one time.
 LinEq1:  Iter=  1 NonCon=     1 RMS=2.68D-03 Max=1.99D-02 NDo=     1
 LinEq1:  Iter=  2 NonCon=     1 RMS=1.80D-04 Max=1.26D-03 NDo=     1
 LinEq1:  Iter=  3 NonCon=     1 RMS=7.80D-06 Max=3.40D-05 NDo=     1
 LinEq1:  Iter=  4 NonCon=     1 RMS=3.65D-07 Max=1.76D-06 NDo=     1
 LinEq1:  Iter=  5 NonCon=     1 RMS=2.77D-08 Max=1.13D-07 NDo=     1
 LinEq1:  Iter=  6 NonCon=     1 RMS=5.07D-09 Max=3.06D-08 NDo=     1
 LinEq1:  Iter=  7 NonCon=     1 RMS=1.40D-09 Max=4.99D-09 NDo=     1
 LinEq1:  Iter=  8 NonCon=     0 RMS=4.63D-11 Max=2.51D-10 NDo=     1
 Linear equations converged to 1.000D-10 1.000D-09 after     8 iterations.
 End of Minotr F.D. properties file   721 does not exist.
 End of Minotr F.D. properties file   722 does not exist.
 End of Minotr F.D. properties file   788 does not exist.

 **********************************************************************

            Population analysis using the SCF density.

 **********************************************************************

 Orbital symmetries:
       Occupied  (SG) (SG) (SG) (SG) (SG) (PI) (PI)
       Virtual   (PI) (PI) (SG) (SG) (SG) (SG) (PI) (PI) (PI) (PI)
                 (SG) (SG) (SG) (SG) (SG)
 The electronic state is 1-SG.
 Alpha  occ. eigenvalues --  -11.18634 -11.18440  -1.02993  -0.75826  -0.67849
 Alpha  occ. eigenvalues --   -0.40786  -0.40786
 Alpha virt. eigenvalues --    0.22014   0.22014   0.27668   0.32923   0.67925
 Alpha virt. eigenvalues --    0.92562   0.96111   0.96111   1.09154   1.09154
 Alpha virt. eigenvalues --    1.26031   1.31663   1.53219   1.64642   2.27938
          Condensed to atoms (all electrons):
               1          2          3          4
     1  C    4.930848   1.061653   0.350428  -0.007127
     2  C    1.061653   4.930847  -0.007128   0.350427
     3  H    0.350428  -0.007128   0.320302   0.000597
     4  H   -0.007127   0.350427   0.000597   0.320302
 Mulliken charges:
               1
     1  C   -0.335802
     2  C   -0.335799
     3  H    0.335800
     4  H    0.335801
 Sum of Mulliken charges =   0.00000
 Mulliken charges with hydrogens summed into heavy atoms:
               1
     1  C   -0.000002
     2  C    0.000002
 Electronic spatial extent (au):  <R**2>=             60.6605
 Charge=              0.0000 electrons
 Dipole moment (field-independent basis, Debye):
    X=              0.0000    Y=              0.0000    Z=              0.0000  Tot=              0.0000
 Quadrupole moment (field-independent basis, Debye-Ang):
   XX=            -13.6566   YY=            -13.6566   ZZ=             -6.8370
   XY=              0.0000   XZ=              0.0000   YZ=              0.0000
 Traceless Quadrupole moment (field-independent basis, Debye-Ang):
   XX=             -2.2732   YY=             -2.2732   ZZ=              4.5464
   XY=              0.0000   XZ=              0.0000   YZ=              0.0000
 Octapole moment (field-independent basis, Debye-Ang**2):
  XXX=              0.0000  YYY=              0.0000  ZZZ=              0.0000  XYY=              0.0000
  XXY=              0.0000  XXZ=              0.0000  XZZ=              0.0000  YZZ=              0.0000
  YYZ=              0.0000  XYZ=              0.0000
 Hexadecapole moment (field-independent basis, Debye-Ang**3):
 XXXX=            -14.2934 YYYY=            -14.2934 ZZZZ=            -34.4489 XXXY=              0.0000
 XXXZ=              0.0000 YYYX=              0.0000 YYYZ=              0.0000 ZZZX=              0.0000
 ZZZY=              0.0000 XXYY=             -4.7645 XXZZ=            -11.8169 YYZZ=            -11.8169
 XXYZ=              0.0000 YYXZ=              0.0000 ZZXY=              0.0000
 N-N= 2.476920721361D+01 E-N=-2.270381994054D+02  KE= 7.601579464745D+01
 Symmetry A1   KE= 7.183915060263D+01
 Symmetry A2   KE= 0.000000000000D+00
 Symmetry B1   KE= 2.088322022410D+00
 Symmetry B2   KE= 2.088322022410D+00
 Calling FoFJK, ICntrl=  10002127 FMM=F ISym2X=1 I1Cent= 0 IOpClX= 0 NMat=1 NMatS=1 NMatT=0.
 ***** Axes restored to original set *****
 -------------------------------------------------------------------
 Center     Atomic                   Forces (Hartrees/Bohr)
 Number     Number              X              Y              Z
 -------------------------------------------------------------------
      1        6           0.014085894    0.001574287    0.007239724
      2        6          -0.014088431   -0.001574571   -0.007241028
      3        1           0.006778729    0.000757614    0.003484062
      4        1          -0.006776192   -0.000757330   -0.003482758
 -------------------------------------------------------------------
 Cartesian Forces:  Max     0.014088431 RMS     0.007211009

 GradGradGradGradGradGradGradGradGradGradGradGradGradGradGradGradGradGrad
 Berny optimization.
 FormGI is forming the generalized inverse of G from B-inverse, IUseBI=4.
 Internal  Forces:  Max     0.023574772 RMS     0.009805637
 Search for a local minimum.
 Step number   1 out of a maximum of   20
 All quantities printed in internal units (Hartrees-Bohrs-Radians)
 Mixed Optimization -- RFO/linear search
 Second derivative matrix not updated -- first step.
 The second derivative matrix:
                          R1        R2        R3        A1        A2
           R1           1.02182
           R2           0.00000   0.38738
           R3           0.00000   0.00000   0.38738
           A1           0.00000   0.00000   0.00000   0.00653
           A2           0.00000   0.00000   0.00000   0.00000   0.00653
           A3           0.00000   0.00000   0.00000   0.00000   0.00000
           A4           0.00000   0.00000   0.00000   0.00000   0.00000
                          A3        A4
           A3           0.00653
           A4           0.00000   0.00653
 ITU=  0
     Eigenvalues ---    0.00653   0.00653   0.00653   0.00653   0.38738
     Eigenvalues ---    0.38738   1.02182
 RFO step:  Lambda=-8.45551981D-04 EMin= 6.53043272D-03
 Linear search not attempted -- first point.
 Iteration  1 RMS(Cart)=  0.01780445 RMS(Int)=  0.00000001
 Iteration  2 RMS(Cart)=  0.00000001 RMS(Int)=  0.00000001
 ClnCor:  largest displacement from symmetrization is 2.09D-08 for atom     1.
 Variable       Old X    -DE/DX   Delta X   Delta X   Delta X     New X
                                 (Linear)    (Quad)   (Total)
    R1        2.27777   0.02357   0.00000   0.02305   0.02305   2.30082
    R2        2.00005   0.00766   0.00000   0.01973   0.01973   2.01978
    R3        2.00006   0.00766   0.00000   0.01972   0.01972   2.01978
    A1        3.14159   0.00000   0.00000   0.00000   0.00000   3.14159
    A2        3.14159   0.00000   0.00000   0.00000   0.00000   3.14159
    A3        3.14159   0.00000   0.00000   0.00000   0.00000   3.14159
    A4        3.14159   0.00000   0.00000   0.00000   0.00000   3.14159
         Item               Value     Threshold  Converged?
 Maximum Force            0.023575     0.000450     NO 
 RMS     Force            0.009806     0.000300     NO 
 Maximum Displacement     0.027660     0.001800     NO 
 RMS     Displacement     0.017804     0.001200     NO 
 Predicted change in Energy=-4.233304D-04
 GradGradGradGradGradGradGradGradGradGradGradGradGradGradGradGradGradGrad

                          Input orientation:                          
 ---------------------------------------------------------------------
 Center     Atomic      Atomic             Coordinates (Angstroms)
 Number     Number       Type             X           Y           Z
 ---------------------------------------------------------------------
      1          6           0        0.817517    0.922652    2.260335
      2          6           0       -0.260058    0.802219    1.706493
      3          1           0        1.763467    1.028375    2.746524
      4          1           0       -1.206008    0.696496    1.220304
 ---------------------------------------------------------------------
                    Distance matrix (angstroms):
                    1          2          3          4
     1  C    0.000000
     2  C    1.217544   0.000000
     3  H    1.068821   2.286365   0.000000
     4  H    2.286365   1.068821   3.355186   0.000000
 Stoichiometry    C2H2
 Framework group  C*V[C*(HCCH)]
 Deg. of freedom     3
 Full point group                 C*V     NOp   4
 Largest Abelian subgroup         C2V     NOp   4
 Largest concise Abelian subgroup C1      NOp   1
                         Standard orientation:                         
 ---------------------------------------------------------------------
 Center     Atomic      Atomic             Coordinates (Angstroms)
 Number     Number       Type             X           Y           Z
 ---------------------------------------------------------------------
      1          6           0        0.000000    0.000000    0.608772
      2          6           0        0.000000    0.000000   -0.608772
      3          1           0        0.000000    0.000000    1.677593
      4          1           0        0.000000    0.000000   -1.677593
 ---------------------------------------------------------------------
 Rotational constants (GHZ):      0.0000000     34.6930369     34.6930369
 Standard basis: 3-21G (6D, 7F)
 There are    14 symmetry adapted cartesian basis functions of A1  symmetry.
 There are     0 symmetry adapted cartesian basis functions of A2  symmetry.
 There are     4 symmetry adapted cartesian basis functions of B1  symmetry.
 There are     4 symmetry adapted cartesian basis functions of B2  symmetry.
 There are    14 symmetry adapted basis functions of A1  symmetry.
 There are     0 symmetry adapted basis functions of A2  symmetry.
 There are     4 symmetry adapted basis functions of B1  symmetry.
 There are     4 symmetry adapted basis functions of B2  symmetry.
    22 basis functions,    36 primitive gaussians,    22 cartesian basis functions
     7 alpha electrons        7 beta electrons
       nuclear repulsion energy        24.5229180617 Hartrees.
 NAtoms=    4 NActive=    4 NUniq=    4 SFac= 1.00D+00 NAtFMM=   60 NAOKFM=F Big=F
 Integral buffers will be    131072 words long.
 Raffenetti 1 integral format.
 Two-electron integral symmetry is turned on.
 One-electron integrals computed using PRISM.
 NBasis=    22 RedAO= T EigKep=  5.08D-03  NBF=    14     0     4     4
 NBsUse=    22 1.00D-06 EigRej= -1.00D+00 NBFU=    14     0     4     4
 Initial guess from the checkpoint file:  "/scr/Gau-21052.chk"
 B after Tr=     0.000000    0.000000    0.000000
         Rot=    1.000000    0.000000    0.000000    0.000000 Ang=   0.00 deg.
 Initial guess orbital symmetries:
       Occupied  (SG) (SG) (SG) (SG) (SG) (PI) (PI)
       Virtual   (SG) (SG) (SG) (SG) (SG) (SG) (SG) (SG) (SG) (PI)
                 (PI) (PI) (PI) (PI) (PI)
 ExpMin= 1.83D-01 ExpMax= 1.72D+02 ExpMxC= 1.72D+02 IAcc=1 IRadAn=         1 AccDes= 0.00D+00
 Harris functional with IExCor=  205 and IRadAn=       1 diagonalized for initial guess.
 HarFok:  IExCor=  205 AccDes= 0.00D+00 IRadAn=         1 IDoV= 1 UseB2=F ITyADJ=14
 ICtDFT=  3500011 ScaDFX=  1.000000  1.000000  1.000000  1.000000
 FoFCou: FMM=F IPFlag=           0 FMFlag=      100000 FMFlg1=           0
         NFxFlg=           0 DoJE=T BraDBF=F KetDBF=T FulRan=T
         wScrn=  0.000000 ICntrl=     500 IOpCl=  0 I1Cent=   200000004 NGrid=           0
         NMat0=    1 NMatS0=      1 NMatT0=    0 NMatD0=    1 NMtDS0=    0 NMtDT0=    0
 Petite list used in FoFCou.
 Keep R1 ints in memory in symmetry-blocked form, NReq=857908.
 Requested convergence on RMS density matrix=1.00D-08 within 128 cycles.
 Requested convergence on MAX density matrix=1.00D-06.
 Requested convergence on             energy=1.00D-06.
 No special actions if energy rises.
 SCF Done:  E(RHF) =  -76.3934892400     A.U. after    8 cycles
            NFock=  8  Conv=0.35D-08     -V/T= 2.0062
 ExpMin= 1.83D-01 ExpMax= 1.72D+02 ExpMxC= 1.72D+02 IAcc=3 IRadAn=         5 AccDes= 0.00D+00
 HarFok:  IExCor=  205 AccDes= 0.00D+00 IRadAn=         5 IDoV=-2 UseB2=F ITyADJ=14
 ICtDFT= 12500011 ScaDFX=  1.000000  1.000000  1.000000  1.000000
 Range of M.O.s used for correlation:     3    22
 NBasis=    22 NAE=     7 NBE=     7 NFC=     2 NFV=     0
 NROrb=     20 NOA=     5 NOB=     5 NVA=    15 NVB=    15
 Semi-Direct transformation.
 ModeAB=           2 MOrb=             5 LenV=      33441162
 LASXX=         4714 LTotXX=        4714 LenRXX=        4714
 LTotAB=        5768 MaxLAS=       25300 LenRXY=       25300
 NonZer=       27700 LenScr=      785920 LnRSAI=           0
 LnScr1=           0 LExtra=           0 Total=       815934
 MaxDsk=          -1 SrtSym=           F ITran=            4
 JobTyp=0 Pass  1:  I=   1 to   5.
 (rs|ai) integrals will be sorted in core.
 Spin components of T(2) and E(2):
     alpha-alpha T2 =       0.1014576152D-01 E2=     -0.2168540038D-01
     alpha-beta  T2 =       0.6623133171D-01 E2=     -0.1423341625D+00
     beta-beta   T2 =       0.1014576152D-01 E2=     -0.2168540038D-01
 ANorm=    0.1042364070D+01
 E2 =    -0.1857049632D+00 EUMP2 =    -0.76579194203244D+02
 Keep R2 and R3 ints in memory in symmetry-blocked form, NReq=834669.
 Iterations=  50 Convergence= 0.100D-07
 Iteration Nr.   1
 **********************
 DD1Dir will call FoFMem   1 times, MxPair=        30
 NAB=    15 NAA=     0 NBB=     0.
 MP4(R+Q)=  0.14104533D-02
 E3=       -0.33948991D-02        EUMP3=      -0.76582589102D+02
 E4(DQ)=   -0.55576713D-02        UMP4(DQ)=   -0.76588146774D+02
 E4(SDQ)=  -0.83346253D-02        UMP4(SDQ)=  -0.76590923728D+02
 DE(Corr)= -0.18751390     E(Corr)=     -76.581003140    
 NORM(A)=   0.10454373D+01
 Iteration Nr.   2
 **********************
 DD1Dir will call FoFMem   1 times, MxPair=        30
 NAB=    15 NAA=     0 NBB=     0.
 DE(Corr)= -0.19541556     E(CORR)=     -76.588904801     Delta=-7.90D-03
 NORM(A)=   0.10530485D+01
 Iteration Nr.   3
 **********************
 DD1Dir will call FoFMem   1 times, MxPair=        30
 NAB=    15 NAA=     0 NBB=     0.
 DE(Corr)= -0.19825904     E(CORR)=     -76.591748285     Delta=-2.84D-03
 NORM(A)=   0.10556602D+01
 Iteration Nr.   4
 **********************
 DD1Dir will call FoFMem   1 times, MxPair=        30
 NAB=    15 NAA=     0 NBB=     0.
 DE(Corr)= -0.19961671     E(CORR)=     -76.593105950     Delta=-1.36D-03
 NORM(A)=   0.10563783D+01
 Iteration Nr.   5
 **********************
 DD1Dir will call FoFMem   1 times, MxPair=        30
 NAB=    15 NAA=     0 NBB=     0.
 DE(Corr)= -0.19981679     E(CORR)=     -76.593306025     Delta=-2.00D-04
 NORM(A)=   0.10564048D+01
 Iteration Nr.   6
 **********************
 DD1Dir will call FoFMem   1 times, MxPair=        30
 NAB=    15 NAA=     0 NBB=     0.
 DE(Corr)= -0.19981871     E(CORR)=     -76.593307953     Delta=-1.93D-06
 NORM(A)=   0.10564091D+01
 Iteration Nr.   7
 **********************
 DD1Dir will call FoFMem   1 times, MxPair=        30
 NAB=    15 NAA=     0 NBB=     0.
 DE(Corr)= -0.19981942     E(CORR)=     -76.593308662     Delta=-7.09D-07
 NORM(A)=   0.10564118D+01
 Iteration Nr.   8
 **********************
 DD1Dir will call FoFMem   1 times, MxPair=        30
 NAB=    15 NAA=     0 NBB=     0.
 DE(Corr)= -0.19981981     E(CORR)=     -76.593309046     Delta=-3.84D-07
 NORM(A)=   0.10564114D+01
 Iteration Nr.   9
 **********************
 DD1Dir will call FoFMem   1 times, MxPair=        30
 NAB=    15 NAA=     0 NBB=     0.
 DE(Corr)= -0.19981988     E(CORR)=     -76.593309116     Delta=-7.02D-08
 NORM(A)=   0.10564114D+01
 Iteration Nr.  10
 **********************
 DD1Dir will call FoFMem   1 times, MxPair=        30
 NAB=    15 NAA=     0 NBB=     0.
 DE(Corr)= -0.19981981     E(CORR)=     -76.593309046     Delta= 6.97D-08
 NORM(A)=   0.10564113D+01
 Iteration Nr.  11
 **********************
 DD1Dir will call FoFMem   1 times, MxPair=        30
 NAB=    15 NAA=     0 NBB=     0.
 DE(Corr)= -0.19981978     E(CORR)=     -76.593309021     Delta= 2.56D-08
 NORM(A)=   0.10564113D+01
 Iteration Nr.  12
 **********************
 DD1Dir will call FoFMem   1 times, MxPair=        30
 NAB=    15 NAA=     0 NBB=     0.
 DE(Corr)= -0.19981977     E(CORR)=     -76.593309010     Delta= 1.12D-08
 NORM(A)=   0.10564113D+01
 Iteration Nr.  13
 **********************
 DD1Dir will call FoFMem   1 times, MxPair=        30
 NAB=    15 NAA=     0 NBB=     0.
 DE(Corr)= -0.19981977     E(CORR)=     -76.593309005     Delta= 4.24D-09
 NORM(A)=   0.10564112D+01
 Dominant configurations:
 ***********************
 Spin Case        I    J    A    B          Value
   ABAB           7    7    9    9      -0.123909D+00
   ABAB           6    6    8    8      -0.123909D+00
 Largest amplitude= 1.24D-01

 Z-AMPLITUDE ITERATIONS

 Iteration Nr.   1
 **********************
 DD1Dir will call FoFMem   1 times, MxPair=        30
 NAB=    15 NAA=     0 NBB=     0.
 DE(Z)  -0.19548117D+00          E(Z)=    -0.76588970406D+02
 NORM(A)=   0.10564112D+01
 Iteration Nr.   2
 **********************
 DD1Dir will call FoFMem   1 times, MxPair=        30
 NAB=    15 NAA=     0 NBB=     0.
 DE(Z)  -0.19548115D+00          E(Z)=    -0.76588970394D+02
 NORM(A)=   0.10564113D+01
 Iteration Nr.   3
 **********************
 DD1Dir will call FoFMem   1 times, MxPair=        30
 NAB=    15 NAA=     0 NBB=     0.
 DE(Z)  -0.19548118D+00          E(Z)=    -0.76588970423D+02
 NORM(A)=   0.10564110D+01
 Iteration Nr.   4
 **********************
 DD1Dir will call FoFMem   1 times, MxPair=        30
 NAB=    15 NAA=     0 NBB=     0.
 DE(Z)  -0.19548109D+00          E(Z)=    -0.76588970333D+02
 NORM(A)=   0.10564109D+01
 Iteration Nr.   5
 **********************
 DD1Dir will call FoFMem   1 times, MxPair=        30
 NAB=    15 NAA=     0 NBB=     0.
 DE(Z)  -0.19548107D+00          E(Z)=    -0.76588970309D+02
 NORM(A)=   0.10529743D+01
 Iteration Nr.   6
 **********************
 DD1Dir will call FoFMem   1 times, MxPair=        30
 NAB=    15 NAA=     0 NBB=     0.
 DE(Z)  -0.19449479D+00          E(Z)=    -0.76587984030D+02
 NORM(A)=   0.10530000D+01
 Iteration Nr.   7
 **********************
 DD1Dir will call FoFMem   1 times, MxPair=        30
 NAB=    15 NAA=     0 NBB=     0.
 DE(Z)  -0.19450169D+00          E(Z)=    -0.76587990928D+02
 NORM(A)=   0.10530001D+01
 Iteration Nr.   8
 **********************
 DD1Dir will call FoFMem   1 times, MxPair=        30
 NAB=    15 NAA=     0 NBB=     0.
 DE(Z)  -0.19450136D+00          E(Z)=    -0.76587990600D+02
 NORM(A)=   0.10530002D+01
 Iteration Nr.   9
 **********************
 DD1Dir will call FoFMem   1 times, MxPair=        30
 NAB=    15 NAA=     0 NBB=     0.
 DE(Z)  -0.19450139D+00          E(Z)=    -0.76587990632D+02
 NORM(A)=   0.10530003D+01
 Iteration Nr.  10
 **********************
 DD1Dir will call FoFMem   1 times, MxPair=        30
 NAB=    15 NAA=     0 NBB=     0.
 DE(Z)  -0.19450140D+00          E(Z)=    -0.76587990638D+02
 NORM(A)=   0.10530003D+01
 Discarding MO integrals.
          IDoAtm=1111
          Differentiating once with respect to electric field.
                with respect to dipole field.
          Differentiating once with respect to nuclear coordinates.
 Keep R1 ints in memory in symmetry-blocked form, NReq=839657.
          There are     1 degrees of freedom in the 1st order CPHF.  IDoFFX=0 NUNeed=     1.
 LinEq1:  Iter=  0 NonCon=     1 RMS=9.44D-03 Max=6.31D-02 NDo=     1
 AX will form     1 AO Fock derivatives at one time.
 LinEq1:  Iter=  1 NonCon=     1 RMS=2.74D-03 Max=2.04D-02 NDo=     1
 LinEq1:  Iter=  2 NonCon=     1 RMS=1.87D-04 Max=1.31D-03 NDo=     1
 LinEq1:  Iter=  3 NonCon=     1 RMS=8.19D-06 Max=3.61D-05 NDo=     1
 LinEq1:  Iter=  4 NonCon=     1 RMS=3.94D-07 Max=1.88D-06 NDo=     1
 LinEq1:  Iter=  5 NonCon=     1 RMS=2.88D-08 Max=1.24D-07 NDo=     1
 LinEq1:  Iter=  6 NonCon=     1 RMS=1.59D-09 Max=5.93D-09 NDo=     1
 LinEq1:  Iter=  7 NonCon=     1 RMS=3.38D-10 Max=2.10D-09 NDo=     1
 LinEq1:  Iter=  8 NonCon=     0 RMS=4.89D-11 Max=2.52D-10 NDo=     1
 Linear equations converged to 1.000D-10 1.000D-09 after     8 iterations.
 End of Minotr F.D. properties file   721 does not exist.
 End of Minotr F.D. properties file   722 does not exist.
 End of Minotr F.D. properties file   788 does not exist.
 Calling FoFJK, ICntrl=  10002127 FMM=F ISym2X=1 I1Cent= 0 IOpClX= 0 NMat=1 NMatS=1 NMatT=0.
 ***** Axes restored to original set *****
 -------------------------------------------------------------------
 Center     Atomic                   Forces (Hartrees/Bohr)
 Number     Number              X              Y              Z
 -------------------------------------------------------------------
      1        6          -0.000974611   -0.000108926   -0.000500920
      2        6           0.000974758    0.000108942    0.000500996
      3        1          -0.000287742   -0.000032159   -0.000147891
      4        1           0.000287595    0.000032143    0.000147815
 -------------------------------------------------------------------
 Cartesian Forces:  Max     0.000974758 RMS     0.000468772

 GradGradGradGradGradGradGradGradGradGradGradGradGradGradGradGradGradGrad
 Berny optimization.
 Using GEDIIS/GDIIS optimizer.
 FormGI is forming the generalized inverse of G from B-inverse, IUseBI=4.
 Internal  Forces:  Max     0.001426323 RMS     0.000566404
 Search for a local minimum.
 Step number   2 out of a maximum of   20
 All quantities printed in internal units (Hartrees-Bohrs-Radians)
 Mixed Optimization -- En-DIIS/RFO-DIIS
 Update second derivatives using D2CorX and points    1    2
 DE= -3.95D-04 DEPred=-4.23D-04 R= 9.32D-01
 TightC=F SS=  1.41D+00  RLast= 3.62D-02 DXNew= 5.0454D-01 1.0856D-01
 Trust test= 9.32D-01 RLast= 3.62D-02 DXMaxT set to 3.00D-01
 The second derivative matrix:
                          R1        R2        R3        A1        A2
           R1           1.06608
           R2           0.01079   0.38974
           R3           0.01078   0.00236   0.38973
           A1           0.00000   0.00000   0.00000   0.00653
           A2           0.00000   0.00000   0.00000   0.00000   0.00653
           A3           0.00000   0.00000   0.00000   0.00000   0.00000
           A4           0.00000   0.00000   0.00000   0.00000   0.00000
                          A3        A4
           A3           0.00653
           A4           0.00000   0.00653
 ITU=  1  0
 Use linear search instead of GDIIS.
     Eigenvalues ---    0.00653   0.00653   0.00653   0.00653   0.38738
     Eigenvalues ---    0.39175   1.06643
 RFO step:  Lambda=-4.48920078D-08 EMin= 6.53043272D-03
 Quartic linear search produced a step of -0.05303.
 Iteration  1 RMS(Cart)=  0.00089114 RMS(Int)=  0.00000001
 SLEqS3 Cycle:   121 Max:0.161166E-07 RMS:0.581793E-08 Conv:0.192907E-13
 SLEqS3 Cycle:   121 Max:0.173583E-07 RMS:0.629336E-08 Conv:0.192907E-13
 Iteration  2 RMS(Cart)=  0.00000000 RMS(Int)=  0.00000002
 ClnCor:  largest displacement from symmetrization is 5.16D-09 for atom     2.
 Variable       Old X    -DE/DX   Delta X   Delta X   Delta X     New X
                                 (Linear)    (Quad)   (Total)
    R1        2.30082  -0.00143  -0.00122  -0.00012  -0.00135   2.29948
    R2        2.01978  -0.00033  -0.00105   0.00019  -0.00085   2.01893
    R3        2.01978  -0.00032  -0.00105   0.00019  -0.00085   2.01893
    A1        3.14159   0.00000   0.00000   0.00000   0.00000   3.14159
    A2        3.14159   0.00000   0.00000   0.00000   0.00000   3.14159
    A3        3.14159   0.00000   0.00000   0.00000   0.00000   3.14159
    A4        3.14159   0.00000   0.00000   0.00000   0.00000   3.14159
         Item               Value     Threshold  Converged?
 Maximum Force            0.001426     0.000450     NO 
 RMS     Force            0.000566     0.000300     NO 
 Maximum Displacement     0.001350     0.001800     YES
 RMS     Displacement     0.000891     0.001200     YES
 Predicted change in Energy=-1.198593D-06
 GradGradGradGradGradGradGradGradGradGradGradGradGradGradGradGradGradGrad

                          Input orientation:                          
 ---------------------------------------------------------------------
 Center     Atomic      Atomic             Coordinates (Angstroms)
 Number     Number       Type             X           Y           Z
 ---------------------------------------------------------------------
      1          6           0        0.817202    0.922617    2.260173
      2          6           0       -0.259743    0.802254    1.706655
      3          1           0        1.762752    1.028295    2.746157
      4          1           0       -1.205293    0.696576    1.220671
 ---------------------------------------------------------------------
                    Distance matrix (angstroms):
                    1          2          3          4
     1  C    0.000000
     2  C    1.216831   0.000000
     3  H    1.068370   2.285201   0.000000
     4  H    2.285201   1.068370   3.353571   0.000000
 Stoichiometry    C2H2
 Framework group  D*H[C*(HC.CH)]
 Deg. of freedom     2
 Full point group                 D*H     NOp   8
 Omega: Change in point group or standard orientation.

 Old FWG=C*V  [C*(H1C1C1H1)]
 New FWG=D*H  [C*(H1C1.C1H1)]
 Largest Abelian subgroup         D2H     NOp   8
 Largest concise Abelian subgroup C2      NOp   2
                         Standard orientation:                         
 ---------------------------------------------------------------------
 Center     Atomic      Atomic             Coordinates (Angstroms)
 Number     Number       Type             X           Y           Z
 ---------------------------------------------------------------------
      1          6           0        0.000000    0.000000    0.608416
      2          6           0        0.000000    0.000000   -0.608416
      3          1           0        0.000000    0.000000    1.676786
      4          1           0        0.000000    0.000000   -1.676786
 ---------------------------------------------------------------------
 Rotational constants (GHZ):      0.0000000     34.7308604     34.7308604
 Standard basis: 3-21G (6D, 7F)
 There are     7 symmetry adapted cartesian basis functions of AG  symmetry.
 There are     0 symmetry adapted cartesian basis functions of B1G symmetry.
 There are     2 symmetry adapted cartesian basis functions of B2G symmetry.
 There are     2 symmetry adapted cartesian basis functions of B3G symmetry.
 There are     0 symmetry adapted cartesian basis functions of AU  symmetry.
 There are     7 symmetry adapted cartesian basis functions of B1U symmetry.
 There are     2 symmetry adapted cartesian basis functions of B2U symmetry.
 There are     2 symmetry adapted cartesian basis functions of B3U symmetry.
 There are     7 symmetry adapted basis functions of AG  symmetry.
 There are     0 symmetry adapted basis functions of B1G symmetry.
 There are     2 symmetry adapted basis functions of B2G symmetry.
 There are     2 symmetry adapted basis functions of B3G symmetry.
 There are     0 symmetry adapted basis functions of AU  symmetry.
 There are     7 symmetry adapted basis functions of B1U symmetry.
 There are     2 symmetry adapted basis functions of B2U symmetry.
 There are     2 symmetry adapted basis functions of B3U symmetry.
    22 basis functions,    36 primitive gaussians,    22 cartesian basis functions
     7 alpha electrons        7 beta electrons
       nuclear repulsion energy        24.5360769801 Hartrees.
 NAtoms=    4 NActive=    4 NUniq=    2 SFac= 4.00D+00 NAtFMM=   60 NAOKFM=F Big=F
 Integral buffers will be    131072 words long.
 Raffenetti 1 integral format.
 Two-electron integral symmetry is turned on.
 One-electron integrals computed using PRISM.
 NBasis=    22 RedAO= T EigKep=  3.58D-03  NBF=     7     0     2     2     0     7     2     2
 NBsUse=    22 1.00D-06 EigRej= -1.00D+00 NBFU=     7     0     2     2     0     7     2     2
 Initial guess from the checkpoint file:  "/scr/Gau-21052.chk"
 B after Tr=     0.000000    0.000000    0.000000
         Rot=    1.000000    0.000000    0.000000    0.000000 Ang=   0.00 deg.
 Initial guess orbital symmetries:
       Occupied  (SGG) (SGU) (SGG) (SGU) (SGG) (PIU) (PIU)
       Virtual   (SGG) (SGG) (SGG) (SGG) (PIG) (PIG) (PIG) (PIG)
                 (SGU) (SGU) (SGU) (SGU) (SGU) (PIU) (PIU)
 Keep R1 ints in memory in symmetry-blocked form, NReq=858426.
 Requested convergence on RMS density matrix=1.00D-08 within 128 cycles.
 Requested convergence on MAX density matrix=1.00D-06.
 Requested convergence on             energy=1.00D-06.
 No special actions if energy rises.
 SCF Done:  E(RHF) =  -76.3936033741     A.U. after    6 cycles
            NFock=  6  Conv=0.18D-08     -V/T= 2.0061
 ExpMin= 1.83D-01 ExpMax= 1.72D+02 ExpMxC= 1.72D+02 IAcc=3 IRadAn=         5 AccDes= 0.00D+00
 HarFok:  IExCor=  205 AccDes= 0.00D+00 IRadAn=         5 IDoV=-2 UseB2=F ITyADJ=14
 ICtDFT= 12500011 ScaDFX=  1.000000  1.000000  1.000000  1.000000
 Range of M.O.s used for correlation:     3    22
 NBasis=    22 NAE=     7 NBE=     7 NFC=     2 NFV=     0
 NROrb=     20 NOA=     5 NOB=     5 NVA=    15 NVB=    15
 Semi-Direct transformation.
 ModeAB=           4 MOrb=             5 LenV=      33440568
 LASXX=         2380 LTotXX=        2380 LenRXX=        5278
 LTotAB=        2898 MaxLAS=       15600 LenRXY=           0
 NonZer=        7658 LenScr=      785920 LnRSAI=       15600
 LnScr1=      785920 LExtra=           0 Total=      1592718
 MaxDsk=          -1 SrtSym=           T ITran=            4
 JobTyp=0 Pass  1:  I=   1 to   5.
 (rs|ai) integrals will be sorted in core.
 Spin components of T(2) and E(2):
     alpha-alpha T2 =       0.1013113837D-01 E2=     -0.2167067305D-01
     alpha-beta  T2 =       0.6613912791D-01 E2=     -0.1422434182D+00
     beta-beta   T2 =       0.1013113837D-01 E2=     -0.2167067305D-01
 ANorm=    0.1042305811D+01
 E2 =    -0.1855847643D+00 EUMP2 =    -0.76579188138377D+02
 Keep R2 and R3 ints in memory in symmetry-blocked form, NReq=835149.
 Iterations=  50 Convergence= 0.100D-07
 Iteration Nr.   1
 **********************
 DD1Dir will call FoFMem   1 times, MxPair=        30
 NAB=    15 NAA=     0 NBB=     0.
 MP4(R+Q)=  0.14097613D-02
 E3=       -0.34275711D-02        EUMP3=      -0.76582615709D+02
 E4(DQ)=   -0.55434269D-02        UMP4(DQ)=   -0.76588159136D+02
 E4(SDQ)=  -0.83121968D-02        UMP4(SDQ)=  -0.76590927906D+02
 DE(Corr)= -0.18742771     E(Corr)=     -76.581031084    
 NORM(A)=   0.10453901D+01
 Iteration Nr.   2
 **********************
 DD1Dir will call FoFMem   1 times, MxPair=        30
 NAB=    15 NAA=     0 NBB=     0.
 DE(Corr)= -0.19531289     E(CORR)=     -76.588916267     Delta=-7.89D-03
 NORM(A)=   0.10529817D+01
 Iteration Nr.   3
 **********************
 DD1Dir will call FoFMem   1 times, MxPair=        30
 NAB=    15 NAA=     0 NBB=     0.
 DE(Corr)= -0.19815188     E(CORR)=     -76.591755252     Delta=-2.84D-03
 NORM(A)=   0.10555828D+01
 Iteration Nr.   4
 **********************
 DD1Dir will call FoFMem   1 times, MxPair=        30
 NAB=    15 NAA=     0 NBB=     0.
 DE(Corr)= -0.19950485     E(CORR)=     -76.593108221     Delta=-1.35D-03
 NORM(A)=   0.10562969D+01
 Iteration Nr.   5
 **********************
 DD1Dir will call FoFMem   1 times, MxPair=        30
 NAB=    15 NAA=     0 NBB=     0.
 DE(Corr)= -0.19970391     E(CORR)=     -76.593307288     Delta=-1.99D-04
 NORM(A)=   0.10563232D+01
 Iteration Nr.   6
 **********************
 DD1Dir will call FoFMem   1 times, MxPair=        30
 NAB=    15 NAA=     0 NBB=     0.
 DE(Corr)= -0.19970582     E(CORR)=     -76.593309197     Delta=-1.91D-06
 NORM(A)=   0.10563275D+01
 Iteration Nr.   7
 **********************
 DD1Dir will call FoFMem   1 times, MxPair=        30
 NAB=    15 NAA=     0 NBB=     0.
 DE(Corr)= -0.19970653     E(CORR)=     -76.593309904     Delta=-7.07D-07
 NORM(A)=   0.10563301D+01
 Iteration Nr.   8
 **********************
 DD1Dir will call FoFMem   1 times, MxPair=        30
 NAB=    15 NAA=     0 NBB=     0.
 DE(Corr)= -0.19970691     E(CORR)=     -76.593310286     Delta=-3.82D-07
 NORM(A)=   0.10563298D+01
 Iteration Nr.   9
 **********************
 DD1Dir will call FoFMem   1 times, MxPair=        30
 NAB=    15 NAA=     0 NBB=     0.
 DE(Corr)= -0.19970698     E(CORR)=     -76.593310356     Delta=-6.96D-08
 NORM(A)=   0.10563297D+01
 Iteration Nr.  10
 **********************
 DD1Dir will call FoFMem   1 times, MxPair=        30
 NAB=    15 NAA=     0 NBB=     0.
 DE(Corr)= -0.19970691     E(CORR)=     -76.593310287     Delta= 6.93D-08
 NORM(A)=   0.10563297D+01
 Iteration Nr.  11
 **********************
 DD1Dir will call FoFMem   1 times, MxPair=        30
 NAB=    15 NAA=     0 NBB=     0.
 DE(Corr)= -0.19970689     E(CORR)=     -76.593310261     Delta= 2.55D-08
 NORM(A)=   0.10563296D+01
 Iteration Nr.  12
 **********************
 DD1Dir will call FoFMem   1 times, MxPair=        30
 NAB=    15 NAA=     0 NBB=     0.
 DE(Corr)= -0.19970688     E(CORR)=     -76.593310250     Delta= 1.11D-08
 NORM(A)=   0.10563296D+01
 Iteration Nr.  13
 **********************
 DD1Dir will call FoFMem   1 times, MxPair=        30
 NAB=    15 NAA=     0 NBB=     0.
 DE(Corr)= -0.19970687     E(CORR)=     -76.593310246     Delta= 4.26D-09
 NORM(A)=   0.10563296D+01
 Dominant configurations:
 ***********************
 Spin Case        I    J    A    B          Value
   ABAB           6    6    8    8      -0.123757D+00
   ABAB           7    7    9    9      -0.123757D+00
 Largest amplitude= 1.24D-01

 Z-AMPLITUDE ITERATIONS

 Iteration Nr.   1
 **********************
 DD1Dir will call FoFMem   1 times, MxPair=        30
 NAB=    15 NAA=     0 NBB=     0.
 DE(Z)  -0.19537931D+00          E(Z)=    -0.76588982684D+02
 NORM(A)=   0.10563296D+01
 Iteration Nr.   2
 **********************
 DD1Dir will call FoFMem   1 times, MxPair=        30
 NAB=    15 NAA=     0 NBB=     0.
 DE(Z)  -0.19537930D+00          E(Z)=    -0.76588982670D+02
 NORM(A)=   0.10563297D+01
 Iteration Nr.   3
 **********************
 DD1Dir will call FoFMem   1 times, MxPair=        30
 NAB=    15 NAA=     0 NBB=     0.
 DE(Z)  -0.19537933D+00          E(Z)=    -0.76588982704D+02
 NORM(A)=   0.10563295D+01
 Iteration Nr.   4
 **********************
 DD1Dir will call FoFMem   1 times, MxPair=        30
 NAB=    15 NAA=     0 NBB=     0.
 DE(Z)  -0.19537929D+00          E(Z)=    -0.76588982664D+02
 NORM(A)=   0.10563297D+01
 Iteration Nr.   5
 **********************
 DD1Dir will call FoFMem   1 times, MxPair=        30
 NAB=    15 NAA=     0 NBB=     0.
 DE(Z)  -0.19537933D+00          E(Z)=    -0.76588982705D+02
 NORM(A)=   0.10529259D+01
 Iteration Nr.   6
 **********************
 DD1Dir will call FoFMem   1 times, MxPair=        30
 NAB=    15 NAA=     0 NBB=     0.
 DE(Z)  -0.19435024D+00          E(Z)=    -0.76587953609D+02
 NORM(A)=   0.10529639D+01
 Iteration Nr.   7
 **********************
 DD1Dir will call FoFMem   1 times, MxPair=        30
 NAB=    15 NAA=     0 NBB=     0.
 DE(Z)  -0.19440174D+00          E(Z)=    -0.76588005112D+02
 NORM(A)=   0.10529299D+01
 Iteration Nr.   8
 **********************
 DD1Dir will call FoFMem   1 times, MxPair=        30
 NAB=    15 NAA=     0 NBB=     0.
 DE(Z)  -0.19440193D+00          E(Z)=    -0.76588005307D+02
 NORM(A)=   0.10529274D+01
 Iteration Nr.   9
 **********************
 DD1Dir will call FoFMem   1 times, MxPair=        30
 NAB=    15 NAA=     0 NBB=     0.
 DE(Z)  -0.19440112D+00          E(Z)=    -0.76588004497D+02
 NORM(A)=   0.10529272D+01
 Iteration Nr.  10
 **********************
 DD1Dir will call FoFMem   1 times, MxPair=        30
 NAB=    15 NAA=     0 NBB=     0.
 DE(Z)  -0.19440108D+00          E(Z)=    -0.76588004458D+02
 NORM(A)=   0.10529272D+01
 Iteration Nr.  11
 **********************
 DD1Dir will call FoFMem   1 times, MxPair=        30
 NAB=    15 NAA=     0 NBB=     0.
 DE(Z)  -0.19440108D+00          E(Z)=    -0.76588004455D+02
 NORM(A)=   0.10529272D+01
 Discarding MO integrals.
          IDoAtm=1111
          Differentiating once with respect to electric field.
                with respect to dipole field.
          Differentiating once with respect to nuclear coordinates.
 Keep R1 ints in memory in symmetry-blocked form, NReq=840241.
          There are     1 degrees of freedom in the 1st order CPHF.  IDoFFX=0 NUNeed=     1.
 LinEq1:  Iter=  0 NonCon=     1 RMS=9.43D-03 Max=6.30D-02 NDo=     1
 AX will form     1 AO Fock derivatives at one time.
 LinEq1:  Iter=  1 NonCon=     1 RMS=2.74D-03 Max=2.04D-02 NDo=     1
 LinEq1:  Iter=  2 NonCon=     1 RMS=1.87D-04 Max=1.30D-03 NDo=     1
 LinEq1:  Iter=  3 NonCon=     1 RMS=8.17D-06 Max=3.59D-05 NDo=     1
 LinEq1:  Iter=  4 NonCon=     1 RMS=3.93D-07 Max=1.88D-06 NDo=     1
 LinEq1:  Iter=  5 NonCon=     1 RMS=2.87D-08 Max=1.24D-07 NDo=     1
 LinEq1:  Iter=  6 NonCon=     1 RMS=1.55D-09 Max=5.90D-09 NDo=     1
 LinEq1:  Iter=  7 NonCon=     0 RMS=5.23D-11 Max=2.79D-10 NDo=     1
 Linear equations converged to 1.000D-10 1.000D-09 after     7 iterations.
 End of Minotr F.D. properties file   721 does not exist.
 End of Minotr F.D. properties file   722 does not exist.
 End of Minotr F.D. properties file   788 does not exist.
 Calling FoFJK, ICntrl=  10002127 FMM=F ISym2X=1 I1Cent= 0 IOpClX= 0 NMat=1 NMatS=1 NMatT=0.
 ***** Axes restored to original set *****
 -------------------------------------------------------------------
 Center     Atomic                   Forces (Hartrees/Bohr)
 Number     Number              X              Y              Z
 -------------------------------------------------------------------
      1        6          -0.000015693   -0.000001754   -0.000008066
      2        6           0.000015693    0.000001754    0.000008066
      3        1           0.000005683    0.000000635    0.000002921
      4        1          -0.000005683   -0.000000635   -0.000002921
 -------------------------------------------------------------------
 Cartesian Forces:  Max     0.000015693 RMS     0.000007699

 GradGradGradGradGradGradGradGradGradGradGradGradGradGradGradGradGradGrad
 Berny optimization.
 Using GEDIIS/GDIIS optimizer.
 FormGI is forming the generalized inverse of G from B-inverse, IUseBI=4.
 Internal  Forces:  Max     0.000011311 RMS     0.000005482
 Search for a local minimum.
 Step number   3 out of a maximum of   20
 All quantities printed in internal units (Hartrees-Bohrs-Radians)
 Mixed Optimization -- En-DIIS/RFO-DIIS
 Swapping is turned off.
 Update second derivatives using D2CorX and points    1    2    3
 DE= -1.24D-06 DEPred=-1.20D-06 R= 1.03D+00
 TightC=F SS=  1.41D+00  RLast= 1.81D-03 DXNew= 5.0454D-01 5.4205D-03
 Trust test= 1.03D+00 RLast= 1.81D-03 DXMaxT set to 3.00D-01
 The second derivative matrix:
                          R1        R2        R3        A1        A2
           R1           1.04834
           R2           0.00203   0.38661
           R3           0.00203  -0.00077   0.38661
           A1           0.00000   0.00000   0.00000   0.00653
           A2           0.00000   0.00000   0.00000   0.00000   0.00653
           A3           0.00000   0.00000   0.00000   0.00000   0.00000
           A4           0.00000   0.00000   0.00000   0.00000   0.00000
                          A3        A4
           A3           0.00653
           A4           0.00000   0.00653
 ITU=  1  1  0
     Eigenvalues ---    0.00653   0.00653   0.00653   0.00653   0.38583
     Eigenvalues ---    0.38738   1.04835
 En-DIIS/RFO-DIIS IScMMF=        0 using points:     3    2
 RFO step:  Lambda= 0.00000000D+00.
 DidBck=F Rises=F RFO-DIIS coefs:    1.00174   -0.00174
 Iteration  1 RMS(Cart)=  0.00000669 RMS(Int)=  0.00000001
 Iteration  2 RMS(Cart)=  0.00000001 RMS(Int)=  0.00000001
 ClnCor:  largest displacement from symmetrization is 9.72D-09 for atom     1.
 Variable       Old X    -DE/DX   Delta X   Delta X   Delta X     New X
                                 (Linear)    (Quad)   (Total)
    R1        2.29948  -0.00001   0.00000  -0.00001  -0.00001   2.29947
    R2        2.01893   0.00001   0.00000   0.00002   0.00002   2.01894
    R3        2.01893   0.00001   0.00000   0.00002   0.00002   2.01894
    A1        3.14159   0.00000   0.00000   0.00000   0.00000   3.14159
    A2        3.14159   0.00000   0.00000   0.00000   0.00000   3.14159
    A3        3.14159   0.00000   0.00000   0.00000   0.00000   3.14159
    A4        3.14159   0.00000   0.00000   0.00000   0.00000   3.14159
         Item               Value     Threshold  Converged?
 Maximum Force            0.000011     0.000450     YES
 RMS     Force            0.000005     0.000300     YES
 Maximum Displacement     0.000010     0.001800     YES
 RMS     Displacement     0.000007     0.001200     YES
 Predicted change in Energy=-1.685914D-10
 Optimization completed.
    -- Stationary point found.
                           ----------------------------
                           !   Optimized Parameters   !
                           ! (Angstroms and Degrees)  !
 --------------------------                            --------------------------
 ! Name  Definition              Value          Derivative Info.                !
 --------------------------------------------------------------------------------
 ! R1    R(1,2)                  1.2168         -DE/DX =    0.0                 !
 ! R2    R(1,3)                  1.0684         -DE/DX =    0.0                 !
 ! R3    R(2,4)                  1.0684         -DE/DX =    0.0                 !
 ! A1    L(2,1,3,-2,-1)        180.0            -DE/DX =    0.0                 !
 ! A2    L(1,2,4,-2,-1)        180.0            -DE/DX =    0.0                 !
 ! A3    L(2,1,3,-3,-2)        180.0            -DE/DX =    0.0                 !
 ! A4    L(1,2,4,-3,-2)        180.0            -DE/DX =    0.0                 !
 --------------------------------------------------------------------------------
 GradGradGradGradGradGradGradGradGradGradGradGradGradGradGradGradGradGrad

                          Input orientation:                          
 ---------------------------------------------------------------------
 Center     Atomic      Atomic             Coordinates (Angstroms)
 Number     Number       Type             X           Y           Z
 ---------------------------------------------------------------------
      1          6           0        0.817202    0.922617    2.260173
      2          6           0       -0.259743    0.802254    1.706655
      3          1           0        1.762752    1.028295    2.746157
      4          1           0       -1.205293    0.696576    1.220671
 ---------------------------------------------------------------------
                    Distance matrix (angstroms):
                    1          2          3          4
     1  C    0.000000
     2  C    1.216831   0.000000
     3  H    1.068370   2.285201   0.000000
     4  H    2.285201   1.068370   3.353571   0.000000
 Stoichiometry    C2H2
 Framework group  D*H[C*(HC.CH)]
 Deg. of freedom     2
 Full point group                 D*H     NOp   8
 Largest Abelian subgroup         D2H     NOp   8
 Largest concise Abelian subgroup C2      NOp   2
                         Standard orientation:                         
 ---------------------------------------------------------------------
 Center     Atomic      Atomic             Coordinates (Angstroms)
 Number     Number       Type             X           Y           Z
 ---------------------------------------------------------------------
      1          6           0        0.000000    0.000000    0.608416
      2          6           0        0.000000    0.000000   -0.608416
      3          1           0        0.000000    0.000000    1.676786
      4          1           0        0.000000    0.000000   -1.676786
 ---------------------------------------------------------------------
 Rotational constants (GHZ):      0.0000000     34.7308604     34.7308604

 **********************************************************************

            Population analysis using the SCF density.

 **********************************************************************

 Orbital symmetries:
       Occupied  (SGG) (SGU) (SGG) (SGU) (SGG) (PIU) (PIU)
       Virtual   (PIG) (PIG) (SGU) (SGG) (SGU) (SGG) (PIU) (PIU)
                 (PIG) (PIG) (SGU) (SGG) (SGG) (SGU) (SGU)
 The electronic state is 1-SGG.
 Alpha  occ. eigenvalues --  -11.19026 -11.18862  -1.02565  -0.75589  -0.67473
 Alpha  occ. eigenvalues --   -0.40505  -0.40505
 Alpha virt. eigenvalues --    0.21666   0.21666   0.27122   0.32590   0.67396
 Alpha virt. eigenvalues --    0.93177   0.96344   0.96344   1.08799   1.08799
 Alpha virt. eigenvalues --    1.26239   1.31662   1.51934   1.61539   2.26158
          Condensed to atoms (all electrons):
               1          2          3          4
     1  C    4.939896   1.055519   0.348983  -0.006815
     2  C    1.055519   4.939896  -0.006815   0.348983
     3  H    0.348983  -0.006815   0.319677   0.000573
     4  H   -0.006815   0.348983   0.000573   0.319677
 Mulliken charges:
               1
     1  C   -0.337582
     2  C   -0.337582
     3  H    0.337582
     4  H    0.337582
 Sum of Mulliken charges =   0.00000
 Mulliken charges with hydrogens summed into heavy atoms:
               1
     1  C    0.000000
     2  C    0.000000
 Electronic spatial extent (au):  <R**2>=             61.3619
 Charge=              0.0000 electrons
 Dipole moment (field-independent basis, Debye):
    X=              0.0000    Y=              0.0000    Z=              0.0000  Tot=              0.0000
 Quadrupole moment (field-independent basis, Debye-Ang):
   XX=            -13.7302   YY=            -13.7302   ZZ=             -6.7279
   XY=              0.0000   XZ=              0.0000   YZ=              0.0000
 Traceless Quadrupole moment (field-independent basis, Debye-Ang):
   XX=             -2.3341   YY=             -2.3341   ZZ=              4.6682
   XY=              0.0000   XZ=              0.0000   YZ=              0.0000
 Octapole moment (field-independent basis, Debye-Ang**2):
  XXX=              0.0000  YYY=              0.0000  ZZZ=              0.0000  XYY=              0.0000
  XXY=              0.0000  XXZ=              0.0000  XZZ=              0.0000  YZZ=              0.0000
  YYZ=              0.0000  XYZ=              0.0000
 Hexadecapole moment (field-independent basis, Debye-Ang**3):
 XXXX=            -14.4134 YYYY=            -14.4134 ZZZZ=            -34.5142 XXXY=              0.0000
 XXXZ=              0.0000 YYYX=              0.0000 YYYZ=              0.0000 ZZZX=              0.0000
 ZZZY=              0.0000 XXYY=             -4.8045 XXZZ=            -12.0375 YYZZ=            -12.0375
 XXYZ=              0.0000 YYXZ=              0.0000 ZZXY=              0.0000
 N-N= 2.453607698006D+01 E-N=-2.264983124017D+02  KE= 7.592945616147D+01
 Symmetry AG   KE= 3.762107818163D+01
 Symmetry B1G  KE= 0.000000000000D+00
 Symmetry B2G  KE= 3.518409165848D-31
 Symmetry B3G  KE= 4.102808308726D-33
 Symmetry AU   KE= 0.000000000000D+00
 Symmetry B1U  KE= 3.414929327322D+01
 Symmetry B2U  KE= 2.079542353306D+00
 Symmetry B3U  KE= 2.079542353306D+00
 1\1\GINC-N0298\FOpt\RCCSD-FC\3-21G\C2H2\TAIYUPAN\23-Feb-2017\0\\#n CCS
 D/3-21G Opt\\CH_CCSD/3-21G\\0,1\C,0.8172018833,0.9226171494,2.26017258
 3\C,-0.2597430082,0.8022541534,1.7066554102\H,1.7627523589,1.028295062
 ,2.7461569915\H,-1.2052934838,0.6965762408,1.2206710018\\Version=ES64L
 -G09RevE.01\State=1-SGG\HF=-76.3936034\MP2=-76.5791881\MP3=-76.5826157
 \MP4D=-76.5895689\MP4DQ=-76.5881591\MP4SDQ=-76.5909279\CCSD=-76.593310
 2\RMSD=1.788e-09\RMSF=7.699e-06\Dipole=0.,0.,0.\PG=D*H [C*(H1C1.C1H1)]
 \\@


 LET US PLACE AT THE END OF EVERY CHAPTER.....THE
 TWO LETTERS USED BY THE ROMAN JUDGES WHEN THEY DID
 NOT UNDERSTAND A PLEADING.
 N. L. -NON LIQUET- IT IS NOT CLEAR.
                                              -- VOLTAIRE
 Job cpu time:       0 days  0 hours  1 minutes 14.6 seconds.
 File lengths (MBytes):  RWF=     19 Int=      0 D2E=      0 Chk=      1 Scr=      1
 Normal termination of Gaussian 09 at Thu Feb 23 18:18:15 2017.
