 Entering Gaussian System, Link 0=g09
 Input=Ethane_MP2_LANL2DZ.com
 Output=Ethane_MP2_LANL2DZ.log
 Initial command:
 /sw/contrib/gaussian/g09/E01/g09/l1.exe "/scr/Gau-3426.inp" -scrdir="/scr/"
 Entering Link 1 = /sw/contrib/gaussian/g09/E01/g09/l1.exe PID=      3427.
  
 Copyright (c) 1988,1990,1992,1993,1995,1998,2003,2009,2015,
            Gaussian, Inc.  All Rights Reserved.
  
 This is part of the Gaussian(R) 09 program.  It is based on
 the Gaussian(R) 03 system (copyright 2003, Gaussian, Inc.),
 the Gaussian(R) 98 system (copyright 1998, Gaussian, Inc.),
 the Gaussian(R) 94 system (copyright 1995, Gaussian, Inc.),
 the Gaussian 92(TM) system (copyright 1992, Gaussian, Inc.),
 the Gaussian 90(TM) system (copyright 1990, Gaussian, Inc.),
 the Gaussian 88(TM) system (copyright 1988, Gaussian, Inc.),
 the Gaussian 86(TM) system (copyright 1986, Carnegie Mellon
 University), and the Gaussian 82(TM) system (copyright 1983,
 Carnegie Mellon University). Gaussian is a federally registered
 trademark of Gaussian, Inc.
  
 This software contains proprietary and confidential information,
 including trade secrets, belonging to Gaussian, Inc.
  
 This software is provided under written license and may be
 used, copied, transmitted, or stored only in accord with that
 written license.
  
 The following legend is applicable only to US Government
 contracts under FAR:
  
                    RESTRICTED RIGHTS LEGEND
  
 Use, reproduction and disclosure by the US Government is
 subject to restrictions as set forth in subparagraphs (a)
 and (c) of the Commercial Computer Software - Restricted
 Rights clause in FAR 52.227-19.
  
 Gaussian, Inc.
 340 Quinnipiac St., Bldg. 40, Wallingford CT 06492
  
  
 ---------------------------------------------------------------
 Warning -- This program may not be used in any manner that
 competes with the business of Gaussian, Inc. or will provide
 assistance to any competitor of Gaussian, Inc.  The licensee
 of this program is prohibited from giving any competitor of
 Gaussian, Inc. access to this program.  By using this program,
 the user acknowledges that Gaussian, Inc. is engaged in the
 business of creating and licensing software in the field of
 computational chemistry and represents and warrants to the
 licensee that it is not a competitor of Gaussian, Inc. and that
 it will not use this program in any manner prohibited above.
 ---------------------------------------------------------------
  

 Cite this work as:
 Gaussian 09, Revision E.01,
 M. J. Frisch, G. W. Trucks, H. B. Schlegel, G. E. Scuseria, 
 M. A. Robb, J. R. Cheeseman, G. Scalmani, V. Barone, B. Mennucci, 
 G. A. Petersson, H. Nakatsuji, M. Caricato, X. Li, H. P. Hratchian, 
 A. F. Izmaylov, J. Bloino, G. Zheng, J. L. Sonnenberg, M. Hada, 
 M. Ehara, K. Toyota, R. Fukuda, J. Hasegawa, M. Ishida, T. Nakajima, 
 Y. Honda, O. Kitao, H. Nakai, T. Vreven, J. A. Montgomery, Jr., 
 J. E. Peralta, F. Ogliaro, M. Bearpark, J. J. Heyd, E. Brothers, 
 K. N. Kudin, V. N. Staroverov, T. Keith, R. Kobayashi, J. Normand, 
 K. Raghavachari, A. Rendell, J. C. Burant, S. S. Iyengar, J. Tomasi, 
 M. Cossi, N. Rega, J. M. Millam, M. Klene, J. E. Knox, J. B. Cross, 
 V. Bakken, C. Adamo, J. Jaramillo, R. Gomperts, R. E. Stratmann, 
 O. Yazyev, A. J. Austin, R. Cammi, C. Pomelli, J. W. Ochterski, 
 R. L. Martin, K. Morokuma, V. G. Zakrzewski, G. A. Voth, 
 P. Salvador, J. J. Dannenberg, S. Dapprich, A. D. Daniels, 
 O. Farkas, J. B. Foresman, J. V. Ortiz, J. Cioslowski, 
 and D. J. Fox, Gaussian, Inc., Wallingford CT, 2013.
 
 ******************************************
 Gaussian 09:  ES64L-G09RevE.01 30-Nov-2015
                21-Feb-2017 
 ******************************************
 %NProcShared=8
 Will use up to    8 processors via shared memory.
 ------------------
 #n MP2/LANL2DZ Opt
 ------------------
 1/18=20,19=15,38=1/1,3;
 2/9=110,12=2,17=6,18=5,40=1/2;
 3/5=6,6=3,11=9,16=1,25=1,30=1,71=1/1,2,3;
 4//1;
 5/5=2,38=5/2;
 8/6=4,10=1/1;
 9/15=2,16=-3/6;
 10/5=1/2;
 6/7=2,8=2,9=2,10=2/1;
 7/12=2/1,2,3,16;
 1/18=20,19=15/3(2);
 2/9=110/2;
 99//99;
 2/9=110/2;
 3/5=6,6=3,11=9,16=1,25=1,30=1,71=1/1,2,3;
 4/5=5,16=3,69=1/1;
 5/5=2,38=5/2;
 8/6=4,10=1/1;
 9/15=2,16=-3/6;
 10/5=1/2;
 7/12=2/1,2,3,16;
 1/18=20,19=15/3(-8);
 2/9=110/2;
 6/7=2,8=2,9=2,10=2/1;
 99//99;
 ------------------
 Ethane MP2 LANL2DZ
 ------------------
 Symbolic Z-matrix:
 Charge =  0 Multiplicity = 1
 C                    -6.3877    0.65101   0. 
 C                    -4.85301   0.57162   0. 
 H                    -6.75069   1.00542   0.96733 
 H                    -6.81994  -0.3333   -0.19339 
 H                    -6.73338   1.33993  -0.77394 
 H                    -4.50733  -0.1173    0.77394 
 H                    -4.42077   1.55593   0.19339 
 H                    -4.49002   0.21721  -0.96733 
 

 GradGradGradGradGradGradGradGradGradGradGradGradGradGradGradGradGradGrad
 Berny optimization.
 Initialization pass.
                           ----------------------------
                           !    Initial Parameters    !
                           ! (Angstroms and Degrees)  !
 --------------------------                            --------------------------
 ! Name  Definition              Value          Derivative Info.                !
 --------------------------------------------------------------------------------
 ! R1    R(1,2)                  1.5367         estimate D2E/DX2                !
 ! R2    R(1,3)                  1.0923         estimate D2E/DX2                !
 ! R3    R(1,4)                  1.0923         estimate D2E/DX2                !
 ! R4    R(1,5)                  1.0923         estimate D2E/DX2                !
 ! R5    R(2,6)                  1.0923         estimate D2E/DX2                !
 ! R6    R(2,7)                  1.0923         estimate D2E/DX2                !
 ! R7    R(2,8)                  1.0923         estimate D2E/DX2                !
 ! A1    A(2,1,3)              110.4041         estimate D2E/DX2                !
 ! A2    A(2,1,4)              110.4039         estimate D2E/DX2                !
 ! A3    A(2,1,5)              110.4038         estimate D2E/DX2                !
 ! A4    A(3,1,4)              108.5227         estimate D2E/DX2                !
 ! A5    A(3,1,5)              108.5224         estimate D2E/DX2                !
 ! A6    A(4,1,5)              108.5227         estimate D2E/DX2                !
 ! A7    A(1,2,6)              110.4038         estimate D2E/DX2                !
 ! A8    A(1,2,7)              110.4039         estimate D2E/DX2                !
 ! A9    A(1,2,8)              110.4041         estimate D2E/DX2                !
 ! A10   A(6,2,7)              108.5227         estimate D2E/DX2                !
 ! A11   A(6,2,8)              108.5224         estimate D2E/DX2                !
 ! A12   A(7,2,8)              108.5227         estimate D2E/DX2                !
 ! D1    D(3,1,2,6)             60.0002         estimate D2E/DX2                !
 ! D2    D(3,1,2,7)            -59.9998         estimate D2E/DX2                !
 ! D3    D(3,1,2,8)            180.0            estimate D2E/DX2                !
 ! D4    D(4,1,2,6)            -60.0            estimate D2E/DX2                !
 ! D5    D(4,1,2,7)            180.0            estimate D2E/DX2                !
 ! D6    D(4,1,2,8)             59.9998         estimate D2E/DX2                !
 ! D7    D(5,1,2,6)            180.0            estimate D2E/DX2                !
 ! D8    D(5,1,2,7)             60.0            estimate D2E/DX2                !
 ! D9    D(5,1,2,8)            -60.0002         estimate D2E/DX2                !
 --------------------------------------------------------------------------------
 Trust Radius=3.00D-01 FncErr=1.00D-07 GrdErr=1.00D-07
 Number of steps in this run=     38 maximum allowed number of steps=    100.
 GradGradGradGradGradGradGradGradGradGradGradGradGradGradGradGradGradGrad

                          Input orientation:                          
 ---------------------------------------------------------------------
 Center     Atomic      Atomic             Coordinates (Angstroms)
 Number     Number       Type             X           Y           Z
 ---------------------------------------------------------------------
      1          6           0       -6.387700    0.651010    0.000000
      2          6           0       -4.853010    0.571620    0.000000
      3          1           0       -6.750690    1.005420    0.967330
      4          1           0       -6.819940   -0.333300   -0.193390
      5          1           0       -6.733380    1.339930   -0.773940
      6          1           0       -4.507330   -0.117300    0.773940
      7          1           0       -4.420770    1.555930    0.193390
      8          1           0       -4.490020    0.217210   -0.967330
 ---------------------------------------------------------------------
                    Distance matrix (angstroms):
                    1          2          3          4          5
     1  C    0.000000
     2  C    1.536742   0.000000
     3  H    1.092289   2.173729   0.000000
     4  H    1.092290   2.173728   1.773200   0.000000
     5  H    1.092286   2.173724   1.773194   1.773198   0.000000
     6  H    2.173724   1.092286   2.516061   2.516058   3.078108
     7  H    2.173728   1.092290   2.516063   3.078117   2.516058
     8  H    2.173729   1.092289   3.078118   2.516063   2.516061
                    6          7          8
     6  H    0.000000
     7  H    1.773198   0.000000
     8  H    1.773194   1.773200   0.000000
 This structure is nearly, but not quite of a higher symmetry.
 Consider Symm=Loose if the higher symmetry is desired.
 Stoichiometry    C2H6
 Framework group  CI[X(C2H6)]
 Deg. of freedom     9
 Full point group                 CI      NOp   2
 Largest Abelian subgroup         CI      NOp   2
 Largest concise Abelian subgroup CI      NOp   2
                         Standard orientation:                         
 ---------------------------------------------------------------------
 Center     Atomic      Atomic             Coordinates (Angstroms)
 Number     Number       Type             X           Y           Z
 ---------------------------------------------------------------------
      1          6           0       -0.767345    0.039695    0.000000
      2          6           0        0.767345   -0.039695    0.000000
      3          1           0       -1.130335    0.394105    0.967330
      4          1           0       -1.199585   -0.944615   -0.193390
      5          1           0       -1.113025    0.728615   -0.773940
      6          1           0        1.113025   -0.728615    0.773940
      7          1           0        1.199585    0.944615    0.193390
      8          1           0        1.130335   -0.394105   -0.967330
 ---------------------------------------------------------------------
 Rotational constants (GHZ):     79.7421566     19.9565168     19.9564985
 Standard basis: LANL2DZ (5D, 7F)
 There are    15 symmetry adapted cartesian basis functions of AG  symmetry.
 There are    15 symmetry adapted cartesian basis functions of AU  symmetry.
 There are    15 symmetry adapted basis functions of AG  symmetry.
 There are    15 symmetry adapted basis functions of AU  symmetry.
    30 basis functions,    74 primitive gaussians,    30 cartesian basis functions
     9 alpha electrons        9 beta electrons
       nuclear repulsion energy        42.1695770054 Hartrees.
 NAtoms=    8 NActive=    8 NUniq=    4 SFac= 4.00D+00 NAtFMM=   60 NAOKFM=F Big=F
 Integral buffers will be    131072 words long.
 Raffenetti 1 integral format.
 Two-electron integral symmetry is turned on.
 One-electron integrals computed using PRISM.
   2 Symmetry operations used in ECPInt.
 ECPInt:  NShTT=     253 NPrTT=    1559 LenC2=     254 LenP2D=    1400.
 LDataN:  DoStor=T MaxTD1= 2 Len=   12
 NBasis=    30 RedAO= T EigKep=  6.44D-03  NBF=    15    15
 NBsUse=    30 1.00D-06 EigRej= -1.00D+00 NBFU=    15    15
 ExpMin= 1.15D-01 ExpMax= 4.23D+03 ExpMxC= 1.46D+02 IAcc=1 IRadAn=         1 AccDes= 0.00D+00
 Harris functional with IExCor=  205 and IRadAn=       1 diagonalized for initial guess.
 HarFok:  IExCor=  205 AccDes= 0.00D+00 IRadAn=         1 IDoV= 1 UseB2=F ITyADJ=14
 ICtDFT=  3500011 ScaDFX=  1.000000  1.000000  1.000000  1.000000
 FoFCou: FMM=F IPFlag=           0 FMFlag=      100000 FMFlg1=           0
         NFxFlg=           0 DoJE=T BraDBF=F KetDBF=T FulRan=T
         wScrn=  0.000000 ICntrl=     500 IOpCl=  0 I1Cent=   200000004 NGrid=           0
         NMat0=    1 NMatS0=      1 NMatT0=    0 NMatD0=    1 NMtDS0=    0 NMtDT0=    0
 Petite list used in FoFCou.
 Initial guess orbital symmetries:
       Occupied  (AG) (AU) (AG) (AU) (AU) (AU) (AG) (AG) (AG)
       Virtual   (AU) (AG) (AU) (AU) (AG) (AG) (AU) (AU) (AU) (AG)
                 (AG) (AG) (AU) (AG) (AU) (AG) (AU) (AU) (AG) (AG)
                 (AU)
 The electronic state of the initial guess is 1-AG.
 Keep R1 ints in memory in symmetry-blocked form, NReq=955573.
 Requested convergence on RMS density matrix=1.00D-08 within 128 cycles.
 Requested convergence on MAX density matrix=1.00D-06.
 Requested convergence on             energy=1.00D-06.
 No special actions if energy rises.
 SCF Done:  E(RHF) =  -79.2056342918     A.U. after    9 cycles
            NFock=  9  Conv=0.17D-08     -V/T= 1.9988
 ExpMin= 1.15D-01 ExpMax= 4.23D+03 ExpMxC= 1.46D+02 IAcc=3 IRadAn=         5 AccDes= 0.00D+00
 HarFok:  IExCor=  205 AccDes= 0.00D+00 IRadAn=         5 IDoV=-2 UseB2=F ITyADJ=14
 ICtDFT= 12500011 ScaDFX=  1.000000  1.000000  1.000000  1.000000
 Range of M.O.s used for correlation:     3    30
 NBasis=    30 NAE=     9 NBE=     9 NFC=     2 NFV=     0
 NROrb=     28 NOA=     7 NOB=     7 NVA=    21 NVB=    21
 Fully direct method using O(ONN) memory.
 JobTyp=1 Pass  1:  I=   3 to   9 NPSUse=  3 ParTrn=F ParDer=T DoDerP=T.
 Spin components of T(2) and E(2):
     alpha-alpha T2 =       0.6806952375D-02 E2=     -0.1566534026D-01
     alpha-beta  T2 =       0.5687956886D-01 E2=     -0.1448471909D+00
     beta-beta   T2 =       0.6806952375D-02 E2=     -0.1566534026D-01
 ANorm=    0.1034646545D+01
 E2 =    -0.1761778715D+00 EUMP2 =    -0.79381812163227D+02
          IDoAtm=11111111
          Differentiating once with respect to electric field.
                with respect to dipole field.
          Differentiating once with respect to nuclear coordinates.
 Keep R1 ints in memory in symmetry-blocked form, NReq=943686.
          There are     1 degrees of freedom in the 1st order CPHF.  IDoFFX=0 NUNeed=     1.
 LinEq1:  Iter=  0 NonCon=     1 RMS=3.02D-03 Max=1.77D-02 NDo=     1
 AX will form     1 AO Fock derivatives at one time.
 LinEq1:  Iter=  1 NonCon=     1 RMS=2.49D-04 Max=1.49D-03 NDo=     1
 LinEq1:  Iter=  2 NonCon=     1 RMS=1.71D-05 Max=9.20D-05 NDo=     1
 LinEq1:  Iter=  3 NonCon=     1 RMS=3.50D-06 Max=2.23D-05 NDo=     1
 LinEq1:  Iter=  4 NonCon=     1 RMS=6.19D-07 Max=3.49D-06 NDo=     1
 LinEq1:  Iter=  5 NonCon=     1 RMS=4.79D-08 Max=3.04D-07 NDo=     1
 LinEq1:  Iter=  6 NonCon=     1 RMS=4.57D-09 Max=2.62D-08 NDo=     1
 LinEq1:  Iter=  7 NonCon=     1 RMS=4.05D-10 Max=2.27D-09 NDo=     1
 LinEq1:  Iter=  8 NonCon=     0 RMS=2.65D-11 Max=1.83D-10 NDo=     1
 Linear equations converged to 1.000D-10 1.000D-09 after     8 iterations.
 End of Minotr F.D. properties file   721 does not exist.
 End of Minotr F.D. properties file   722 does not exist.
 End of Minotr F.D. properties file   788 does not exist.

 **********************************************************************

            Population analysis using the SCF density.

 **********************************************************************

 Orbital symmetries:
       Occupied  (AG) (AU) (AG) (AU) (AU) (AU) (AG) (AG) (AG)
       Virtual   (AU) (AG) (AG) (AG) (AU) (AU) (AU) (AG) (AU) (AU)
                 (AG) (AG) (AU) (AG) (AU) (AG) (AU) (AU) (AG) (AG)
                 (AU)
 The electronic state is 1-AG.
 Alpha  occ. eigenvalues --  -11.21267 -11.21210  -1.01862  -0.84091  -0.59709
 Alpha  occ. eigenvalues --   -0.59709  -0.50068  -0.48406  -0.48406
 Alpha virt. eigenvalues --    0.25252   0.27317   0.32024   0.32024   0.36859
 Alpha virt. eigenvalues --    0.36859   0.39628   0.45362   0.46682   0.46682
 Alpha virt. eigenvalues --    0.52168   0.52168   0.75187   1.16914   1.29587
 Alpha virt. eigenvalues --    1.34546   1.38860   1.38860   1.42959   1.42959
 Alpha virt. eigenvalues --    1.61907
          Condensed to atoms (all electrons):
               1          2          3          4          5          6
     1  C    5.211049   0.279324   0.384459   0.384459   0.384459  -0.047369
     2  C    0.279324   5.211049  -0.047369  -0.047369  -0.047369   0.384459
     3  H    0.384459  -0.047369   0.547095  -0.025276  -0.025276  -0.002124
     4  H    0.384459  -0.047369  -0.025276   0.547095  -0.025276  -0.002124
     5  H    0.384459  -0.047369  -0.025276  -0.025276   0.547095   0.003399
     6  H   -0.047369   0.384459  -0.002124  -0.002124   0.003399   0.547095
     7  H   -0.047369   0.384459  -0.002124   0.003399  -0.002124  -0.025276
     8  H   -0.047369   0.384459   0.003399  -0.002124  -0.002124  -0.025276
               7          8
     1  C   -0.047369  -0.047369
     2  C    0.384459   0.384459
     3  H   -0.002124   0.003399
     4  H    0.003399  -0.002124
     5  H   -0.002124  -0.002124
     6  H   -0.025276  -0.025276
     7  H    0.547095  -0.025276
     8  H   -0.025276   0.547095
 Mulliken charges:
               1
     1  C   -0.501644
     2  C   -0.501644
     3  H    0.167215
     4  H    0.167214
     5  H    0.167215
     6  H    0.167215
     7  H    0.167214
     8  H    0.167215
 Sum of Mulliken charges =   0.00000
 Mulliken charges with hydrogens summed into heavy atoms:
               1
     1  C    0.000000
     2  C    0.000000
 Electronic spatial extent (au):  <R**2>=            109.9006
 Charge=              0.0000 electrons
 Dipole moment (field-independent basis, Debye):
    X=              0.0000    Y=              0.0000    Z=              0.0000  Tot=              0.0000
 Quadrupole moment (field-independent basis, Debye-Ang):
   XX=            -15.7146   YY=            -14.9071   ZZ=            -14.9050
   XY=              0.0419   XZ=              0.0000   YZ=              0.0000
 Traceless Quadrupole moment (field-independent basis, Debye-Ang):
   XX=             -0.5390   YY=              0.2684   ZZ=              0.2706
   XY=              0.0419   XZ=              0.0000   YZ=              0.0000
 Octapole moment (field-independent basis, Debye-Ang**2):
  XXX=              0.0000  YYY=              0.0000  ZZZ=              0.0000  XYY=              0.0000
  XXY=              0.0000  XXZ=              0.0000  XZZ=              0.0000  YZZ=              0.0000
  YYZ=              0.0000  XYZ=              0.0000
 Hexadecapole moment (field-independent basis, Debye-Ang**3):
 XXXX=            -93.9379 YYYY=            -29.1037 ZZZZ=            -28.7291 XXXY=              1.8652
 XXXZ=              0.0054 YYYX=              2.5609 YYYZ=             -0.1048 ZZZX=             -0.6772
 ZZZY=              0.0350 XXYY=            -19.2831 XXZZ=            -19.4571 YYZZ=             -9.4934
 XXYZ=              0.0698 YYXZ=              0.6718 ZZXY=             -0.5466
 N-N= 4.216957700541D+01 E-N=-2.681551719317D+02  KE= 7.929930968677D+01
 Symmetry AG   KE= 4.115134547120D+01
 Symmetry AU   KE= 3.814796421557D+01
   2 Symmetry operations used in ECPInt.
 ECPInt:  NShTT=     253 NPrTT=    1559 LenC2=     254 LenP2D=    1400.
 LDataN:  DoStor=T MaxTD1= 3 Len=   28
 Calling FoFJK, ICntrl=  10002127 FMM=F ISym2X=1 I1Cent= 0 IOpClX= 0 NMat=1 NMatS=1 NMatT=0.
 ***** Axes restored to original set *****
 -------------------------------------------------------------------
 Center     Atomic                   Forces (Hartrees/Bohr)
 Number     Number              X              Y              Z
 -------------------------------------------------------------------
      1        6          -0.002427959    0.000124265    0.000000791
      2        6           0.002427959   -0.000124265   -0.000000791
      3        1          -0.004701191    0.002482897    0.006455989
      4        1          -0.005163473   -0.006450667   -0.001290504
      5        1          -0.004586856    0.004716841   -0.005166892
      6        1           0.004586856   -0.004716841    0.005166892
      7        1           0.005163473    0.006450667    0.001290504
      8        1           0.004701191   -0.002482897   -0.006455989
 -------------------------------------------------------------------
 Cartesian Forces:  Max     0.006455989 RMS     0.004240467

 GradGradGradGradGradGradGradGradGradGradGradGradGradGradGradGradGradGrad
 Berny optimization.
 FormGI is forming the generalized inverse of G from B-inverse, IUseBI=4.
 Internal  Forces:  Max     0.016902056 RMS     0.005121711
 Search for a local minimum.
 Step number   1 out of a maximum of   38
 All quantities printed in internal units (Hartrees-Bohrs-Radians)
 Mixed Optimization -- RFO/linear search
 Second derivative matrix not updated -- first step.
 ITU=  0
     Eigenvalues ---    0.00280   0.05575   0.05575   0.05575   0.05575
     Eigenvalues ---    0.16000   0.16000   0.16000   0.16000   0.16000
     Eigenvalues ---    0.16000   0.28809   0.34549   0.34549   0.34549
     Eigenvalues ---    0.34549   0.34550   0.34550
 RFO step:  Lambda=-2.45857808D-03 EMin= 2.79920382D-03
 Linear search not attempted -- first point.
 Iteration  1 RMS(Cart)=  0.03048911 RMS(Int)=  0.00010209
 Iteration  2 RMS(Cart)=  0.00011497 RMS(Int)=  0.00005520
 Iteration  3 RMS(Cart)=  0.00000001 RMS(Int)=  0.00005520
 ClnCor:  largest displacement from symmetrization is 1.11D-08 for atom     8.
 Variable       Old X    -DE/DX   Delta X   Delta X   Delta X     New X
                                 (Linear)    (Quad)   (Total)
    R1        2.90402   0.01690   0.00000   0.05817   0.05817   2.96219
    R2        2.06413   0.00809   0.00000   0.02324   0.02324   2.08736
    R3        2.06413   0.00808   0.00000   0.02324   0.02324   2.08736
    R4        2.06412   0.00809   0.00000   0.02324   0.02324   2.08736
    R5        2.06412   0.00809   0.00000   0.02324   0.02324   2.08736
    R6        2.06413   0.00808   0.00000   0.02324   0.02324   2.08736
    R7        2.06413   0.00809   0.00000   0.02324   0.02324   2.08736
    A1        1.92691   0.00213   0.00000   0.01313   0.01305   1.93996
    A2        1.92691   0.00213   0.00000   0.01314   0.01305   1.93996
    A3        1.92691   0.00213   0.00000   0.01314   0.01305   1.93996
    A4        1.89408  -0.00221   0.00000  -0.01358  -0.01366   1.88041
    A5        1.89407  -0.00221   0.00000  -0.01358  -0.01366   1.88042
    A6        1.89408  -0.00221   0.00000  -0.01358  -0.01366   1.88042
    A7        1.92691   0.00213   0.00000   0.01314   0.01305   1.93996
    A8        1.92691   0.00213   0.00000   0.01314   0.01305   1.93996
    A9        1.92691   0.00213   0.00000   0.01313   0.01305   1.93996
   A10        1.89408  -0.00221   0.00000  -0.01358  -0.01366   1.88042
   A11        1.89407  -0.00221   0.00000  -0.01358  -0.01366   1.88042
   A12        1.89408  -0.00221   0.00000  -0.01358  -0.01366   1.88041
    D1        1.04720   0.00000   0.00000   0.00000   0.00000   1.04720
    D2       -1.04719   0.00000   0.00000   0.00000   0.00000  -1.04720
    D3        3.14159   0.00000   0.00000   0.00000   0.00000   3.14159
    D4       -1.04720   0.00000   0.00000   0.00000   0.00000  -1.04720
    D5        3.14159   0.00000   0.00000   0.00000   0.00000   3.14159
    D6        1.04719   0.00000   0.00000   0.00000   0.00000   1.04720
    D7        3.14159   0.00000   0.00000   0.00000   0.00000   3.14159
    D8        1.04720   0.00000   0.00000   0.00000   0.00000   1.04720
    D9       -1.04720   0.00000   0.00000   0.00000   0.00000  -1.04720
         Item               Value     Threshold  Converged?
 Maximum Force            0.016902     0.000450     NO 
 RMS     Force            0.005122     0.000300     NO 
 Maximum Displacement     0.063183     0.001800     NO 
 RMS     Displacement     0.030546     0.001200     NO 
 Predicted change in Energy=-1.240057D-03
 GradGradGradGradGradGradGradGradGradGradGradGradGradGradGradGradGradGrad

                          Input orientation:                          
 ---------------------------------------------------------------------
 Center     Atomic      Atomic             Coordinates (Angstroms)
 Number     Number       Type             X           Y           Z
 ---------------------------------------------------------------------
      1          6           0       -6.403071    0.651806   -0.000001
      2          6           0       -4.837639    0.570824    0.000001
      3          1           0       -6.783690    1.009228    0.973389
      4          1           0       -6.853375   -0.337874   -0.194601
      5          1           0       -6.766276    1.345836   -0.778791
      6          1           0       -4.474434   -0.123206    0.778791
      7          1           0       -4.387335    1.560504    0.194601
      8          1           0       -4.457020    0.213402   -0.973389
 ---------------------------------------------------------------------
                    Distance matrix (angstroms):
                    1          2          3          4          5
     1  C    0.000000
     2  C    1.567525   0.000000
     3  H    1.104586   2.219638   0.000000
     4  H    1.104585   2.219639   1.784304   0.000000
     5  H    1.104586   2.219640   1.784304   1.784305   0.000000
     6  H    2.219640   1.104586   2.579329   2.579329   3.136349
     7  H    2.219639   1.104585   2.579328   3.136347   2.579329
     8  H    2.219638   1.104586   3.136347   2.579328   2.579329
                    6          7          8
     6  H    0.000000
     7  H    1.784305   0.000000
     8  H    1.784304   1.784304   0.000000
 Stoichiometry    C2H6
 Framework group  CI[X(C2H6)]
 Deg. of freedom     9
 Full point group                 CI      NOp   2
 Largest Abelian subgroup         CI      NOp   2
 Largest concise Abelian subgroup CI      NOp   2
                         Standard orientation:                         
 ---------------------------------------------------------------------
 Center     Atomic      Atomic             Coordinates (Angstroms)
 Number     Number       Type             X           Y           Z
 ---------------------------------------------------------------------
      1          6           0       -0.782716    0.040491   -0.000001
      2          6           0        0.782716   -0.040491    0.000001
      3          1           0       -1.163335    0.397913    0.973389
      4          1           0       -1.233020   -0.949189   -0.194601
      5          1           0       -1.145921    0.734521   -0.778791
      6          1           0        1.145921   -0.734521    0.778791
      7          1           0        1.233020    0.949189    0.194601
      8          1           0        1.163335   -0.397913   -0.973389
 ---------------------------------------------------------------------
 Rotational constants (GHZ):     78.7524677     19.1397861     19.1397842
 Standard basis: LANL2DZ (5D, 7F)
 There are    15 symmetry adapted cartesian basis functions of AG  symmetry.
 There are    15 symmetry adapted cartesian basis functions of AU  symmetry.
 There are    15 symmetry adapted basis functions of AG  symmetry.
 There are    15 symmetry adapted basis functions of AU  symmetry.
    30 basis functions,    74 primitive gaussians,    30 cartesian basis functions
     9 alpha electrons        9 beta electrons
       nuclear repulsion energy        41.4990120740 Hartrees.
 NAtoms=    8 NActive=    8 NUniq=    4 SFac= 4.00D+00 NAtFMM=   60 NAOKFM=F Big=F
 Integral buffers will be    131072 words long.
 Raffenetti 1 integral format.
 Two-electron integral symmetry is turned on.
 One-electron integrals computed using PRISM.
   2 Symmetry operations used in ECPInt.
 ECPInt:  NShTT=     253 NPrTT=    1559 LenC2=     254 LenP2D=    1400.
 LDataN:  DoStor=T MaxTD1= 2 Len=   12
 NBasis=    30 RedAO= T EigKep=  6.91D-03  NBF=    15    15
 NBsUse=    30 1.00D-06 EigRej= -1.00D+00 NBFU=    15    15
 Initial guess from the checkpoint file:  "/scr/Gau-3427.chk"
 B after Tr=     0.000000    0.000000    0.000000
         Rot=    1.000000    0.000000    0.000000    0.000000 Ang=   0.00 deg.
 Initial guess orbital symmetries:
       Occupied  (AG) (AU) (AG) (AU) (AU) (AU) (AG) (AG) (AG)
       Virtual   (AG) (AG) (AG) (AG) (AG) (AG) (AG) (AG) (AG) (AG)
                 (AU) (AU) (AU) (AU) (AU) (AU) (AU) (AU) (AU) (AU)
                 (AU)
 ExpMin= 1.15D-01 ExpMax= 4.23D+03 ExpMxC= 1.46D+02 IAcc=1 IRadAn=         1 AccDes= 0.00D+00
 Harris functional with IExCor=  205 and IRadAn=       1 diagonalized for initial guess.
 HarFok:  IExCor=  205 AccDes= 0.00D+00 IRadAn=         1 IDoV= 1 UseB2=F ITyADJ=14
 ICtDFT=  3500011 ScaDFX=  1.000000  1.000000  1.000000  1.000000
 FoFCou: FMM=F IPFlag=           0 FMFlag=      100000 FMFlg1=           0
         NFxFlg=           0 DoJE=T BraDBF=F KetDBF=T FulRan=T
         wScrn=  0.000000 ICntrl=     500 IOpCl=  0 I1Cent=   200000004 NGrid=           0
         NMat0=    1 NMatS0=      1 NMatT0=    0 NMatD0=    1 NMtDS0=    0 NMtDT0=    0
 Petite list used in FoFCou.
 Keep R1 ints in memory in symmetry-blocked form, NReq=955405.
 Requested convergence on RMS density matrix=1.00D-08 within 128 cycles.
 Requested convergence on MAX density matrix=1.00D-06.
 Requested convergence on             energy=1.00D-06.
 No special actions if energy rises.
 SCF Done:  E(RHF) =  -79.2039776411     A.U. after    7 cycles
            NFock=  7  Conv=0.80D-08     -V/T= 2.0008
 ExpMin= 1.15D-01 ExpMax= 4.23D+03 ExpMxC= 1.46D+02 IAcc=3 IRadAn=         5 AccDes= 0.00D+00
 HarFok:  IExCor=  205 AccDes= 0.00D+00 IRadAn=         5 IDoV=-2 UseB2=F ITyADJ=14
 ICtDFT= 12500011 ScaDFX=  1.000000  1.000000  1.000000  1.000000
 Range of M.O.s used for correlation:     3    30
 NBasis=    30 NAE=     9 NBE=     9 NFC=     2 NFV=     0
 NROrb=     28 NOA=     7 NOB=     7 NVA=    21 NVB=    21
 Fully direct method using O(ONN) memory.
 JobTyp=1 Pass  1:  I=   3 to   9 NPSUse=  3 ParTrn=F ParDer=T DoDerP=T.
 Spin components of T(2) and E(2):
     alpha-alpha T2 =       0.7000495397D-02 E2=     -0.1592513286D-01
     alpha-beta  T2 =       0.5860835697D-01 E2=     -0.1470280231D+00
     beta-beta   T2 =       0.7000495397D-02 E2=     -0.1592513286D-01
 ANorm=    0.1035668551D+01
 E2 =    -0.1788782888D+00 EUMP2 =    -0.79382855929933D+02
          IDoAtm=11111111
          Differentiating once with respect to electric field.
                with respect to dipole field.
          Differentiating once with respect to nuclear coordinates.
 Keep R1 ints in memory in symmetry-blocked form, NReq=943610.
          There are     1 degrees of freedom in the 1st order CPHF.  IDoFFX=0 NUNeed=     1.
 LinEq1:  Iter=  0 NonCon=     1 RMS=2.92D-03 Max=1.36D-02 NDo=     1
 AX will form     1 AO Fock derivatives at one time.
 LinEq1:  Iter=  1 NonCon=     1 RMS=2.67D-04 Max=1.90D-03 NDo=     1
 LinEq1:  Iter=  2 NonCon=     1 RMS=8.95D-05 Max=4.98D-04 NDo=     1
 LinEq1:  Iter=  3 NonCon=     1 RMS=9.93D-06 Max=6.03D-05 NDo=     1
 LinEq1:  Iter=  4 NonCon=     1 RMS=6.73D-07 Max=3.93D-06 NDo=     1
 LinEq1:  Iter=  5 NonCon=     1 RMS=4.77D-08 Max=2.69D-07 NDo=     1
 LinEq1:  Iter=  6 NonCon=     1 RMS=4.52D-09 Max=2.80D-08 NDo=     1
 LinEq1:  Iter=  7 NonCon=     1 RMS=4.26D-10 Max=2.51D-09 NDo=     1
 LinEq1:  Iter=  8 NonCon=     0 RMS=2.67D-11 Max=1.93D-10 NDo=     1
 Linear equations converged to 1.000D-10 1.000D-09 after     8 iterations.
 End of Minotr F.D. properties file   721 does not exist.
 End of Minotr F.D. properties file   722 does not exist.
 End of Minotr F.D. properties file   788 does not exist.
   2 Symmetry operations used in ECPInt.
 ECPInt:  NShTT=     253 NPrTT=    1559 LenC2=     254 LenP2D=    1400.
 LDataN:  DoStor=T MaxTD1= 3 Len=   28
 Calling FoFJK, ICntrl=  10002127 FMM=F ISym2X=1 I1Cent= 0 IOpClX= 0 NMat=1 NMatS=1 NMatT=0.
 ***** Axes restored to original set *****
 -------------------------------------------------------------------
 Center     Atomic                   Forces (Hartrees/Bohr)
 Number     Number              X              Y              Z
 -------------------------------------------------------------------
      1        6           0.001889652   -0.000097824    0.000000241
      2        6          -0.001889652    0.000097824   -0.000000241
      3        1           0.000640045    0.000096554    0.000373612
      4        1           0.000613311   -0.000420554   -0.000074753
      5        1           0.000646920    0.000225646   -0.000298882
      6        1          -0.000646920   -0.000225646    0.000298882
      7        1          -0.000613311    0.000420554    0.000074753
      8        1          -0.000640045   -0.000096554   -0.000373612
 -------------------------------------------------------------------
 Cartesian Forces:  Max     0.001889652 RMS     0.000661833

 GradGradGradGradGradGradGradGradGradGradGradGradGradGradGradGradGradGrad
 Berny optimization.
 Using GEDIIS/GDIIS optimizer.
 FormGI is forming the generalized inverse of G from B-inverse, IUseBI=4.
 Internal  Forces:  Max     0.003795002 RMS     0.000869232
 Search for a local minimum.
 Step number   2 out of a maximum of   38
 All quantities printed in internal units (Hartrees-Bohrs-Radians)
 Mixed Optimization -- En-DIIS/RFO-DIIS
 Update second derivatives using D2CorX and points    1    2
 DE= -1.04D-03 DEPred=-1.24D-03 R= 8.42D-01
 TightC=F SS=  1.41D+00  RLast= 9.36D-02 DXNew= 5.0454D-01 2.8087D-01
 Trust test= 8.42D-01 RLast= 9.36D-02 DXMaxT set to 3.00D-01
 ITU=  1  0
 Use linear search instead of GDIIS.
     Eigenvalues ---    0.00280   0.05438   0.05438   0.05438   0.05438
     Eigenvalues ---    0.16000   0.16000   0.16000   0.16000   0.16000
     Eigenvalues ---    0.16984   0.31542   0.33901   0.34549   0.34549
     Eigenvalues ---    0.34549   0.34550   0.34550
 RFO step:  Lambda=-3.91866239D-05 EMin= 2.79920382D-03
 Quartic linear search produced a step of -0.12108.
 Iteration  1 RMS(Cart)=  0.00631532 RMS(Int)=  0.00000947
 Iteration  2 RMS(Cart)=  0.00001107 RMS(Int)=  0.00000178
 Iteration  3 RMS(Cart)=  0.00000000 RMS(Int)=  0.00000178
 ClnCor:  largest displacement from symmetrization is 8.66D-09 for atom     8.
 Variable       Old X    -DE/DX   Delta X   Delta X   Delta X     New X
                                 (Linear)    (Quad)   (Total)
    R1        2.96219  -0.00380  -0.00704  -0.00391  -0.01095   2.95124
    R2        2.08736   0.00014  -0.00281   0.00344   0.00063   2.08799
    R3        2.08736   0.00014  -0.00281   0.00344   0.00063   2.08799
    R4        2.08736   0.00014  -0.00281   0.00344   0.00063   2.08799
    R5        2.08736   0.00014  -0.00281   0.00344   0.00063   2.08799
    R6        2.08736   0.00014  -0.00281   0.00344   0.00063   2.08799
    R7        2.08736   0.00014  -0.00281   0.00344   0.00063   2.08799
    A1        1.93996  -0.00072  -0.00158  -0.00231  -0.00389   1.93607
    A2        1.93996  -0.00072  -0.00158  -0.00231  -0.00389   1.93607
    A3        1.93996  -0.00072  -0.00158  -0.00231  -0.00389   1.93607
    A4        1.88041   0.00076   0.00165   0.00245   0.00411   1.88452
    A5        1.88042   0.00077   0.00165   0.00245   0.00410   1.88452
    A6        1.88042   0.00077   0.00165   0.00245   0.00410   1.88452
    A7        1.93996  -0.00072  -0.00158  -0.00231  -0.00389   1.93607
    A8        1.93996  -0.00072  -0.00158  -0.00231  -0.00389   1.93607
    A9        1.93996  -0.00072  -0.00158  -0.00231  -0.00389   1.93607
   A10        1.88042   0.00077   0.00165   0.00245   0.00410   1.88452
   A11        1.88042   0.00077   0.00165   0.00245   0.00410   1.88452
   A12        1.88041   0.00076   0.00165   0.00245   0.00411   1.88452
    D1        1.04720   0.00000   0.00000   0.00000   0.00000   1.04720
    D2       -1.04720   0.00000   0.00000   0.00000   0.00000  -1.04720
    D3        3.14159   0.00000   0.00000   0.00000   0.00000   3.14159
    D4       -1.04720   0.00000   0.00000   0.00000   0.00000  -1.04720
    D5        3.14159   0.00000   0.00000   0.00000   0.00000   3.14159
    D6        1.04720   0.00000   0.00000   0.00000   0.00000   1.04720
    D7        3.14159   0.00000   0.00000   0.00000   0.00000   3.14159
    D8        1.04720   0.00000   0.00000   0.00000   0.00000   1.04720
    D9       -1.04720   0.00000   0.00000   0.00000   0.00000  -1.04720
         Item               Value     Threshold  Converged?
 Maximum Force            0.003795     0.000450     NO 
 RMS     Force            0.000869     0.000300     NO 
 Maximum Displacement     0.012925     0.001800     NO 
 RMS     Displacement     0.006324     0.001200     NO 
 Predicted change in Energy=-3.778900D-05
 GradGradGradGradGradGradGradGradGradGradGradGradGradGradGradGradGradGrad

                          Input orientation:                          
 ---------------------------------------------------------------------
 Center     Atomic      Atomic             Coordinates (Angstroms)
 Number     Number       Type             X           Y           Z
 ---------------------------------------------------------------------
      1          6           0       -6.400178    0.651656   -0.000001
      2          6           0       -4.840532    0.570974    0.000001
      3          1           0       -6.776882    1.009483    0.975138
      4          1           0       -6.846693   -0.340040   -0.194951
      5          1           0       -6.759437    1.346695   -0.780190
      6          1           0       -4.481273   -0.124065    0.780190
      7          1           0       -4.394017    1.562670    0.194951
      8          1           0       -4.463828    0.213147   -0.975138
 ---------------------------------------------------------------------
                    Distance matrix (angstroms):
                    1          2          3          4          5
     1  C    0.000000
     2  C    1.561731   0.000000
     3  H    1.104917   2.211930   0.000000
     4  H    1.104917   2.211930   1.787511   0.000000
     5  H    1.104917   2.211930   1.787511   1.787511   0.000000
     6  H    2.211930   1.104917   2.567636   2.567636   3.128570
     7  H    2.211930   1.104917   2.567636   3.128570   2.567636
     8  H    2.211930   1.104917   3.128570   2.567636   2.567636
                    6          7          8
     6  H    0.000000
     7  H    1.787511   0.000000
     8  H    1.787511   1.787511   0.000000
 This structure is nearly, but not quite of a higher symmetry.
 Consider Symm=Loose if the higher symmetry is desired.
 Stoichiometry    C2H6
 Framework group  CI[X(C2H6)]
 Deg. of freedom     9
 Full point group                 CI      NOp   2
 Largest Abelian subgroup         CI      NOp   2
 Largest concise Abelian subgroup CI      NOp   2
                         Standard orientation:                         
 ---------------------------------------------------------------------
 Center     Atomic      Atomic             Coordinates (Angstroms)
 Number     Number       Type             X           Y           Z
 ---------------------------------------------------------------------
      1          6           0       -0.779823    0.040341   -0.000001
      2          6           0        0.779823   -0.040341    0.000001
      3          1           0       -1.156527    0.398168    0.975138
      4          1           0       -1.226338   -0.951355   -0.194951
      5          1           0       -1.139082    0.735380   -0.780190
      6          1           0        1.139082   -0.735380    0.780190
      7          1           0        1.226338    0.951355    0.194951
      8          1           0        1.156527   -0.398168   -0.975138
 ---------------------------------------------------------------------
 Rotational constants (GHZ):     78.4702025     19.2814417     19.2814417
 Standard basis: LANL2DZ (5D, 7F)
 There are    15 symmetry adapted cartesian basis functions of AG  symmetry.
 There are    15 symmetry adapted cartesian basis functions of AU  symmetry.
 There are    15 symmetry adapted basis functions of AG  symmetry.
 There are    15 symmetry adapted basis functions of AU  symmetry.
    30 basis functions,    74 primitive gaussians,    30 cartesian basis functions
     9 alpha electrons        9 beta electrons
       nuclear repulsion energy        41.5725049644 Hartrees.
 NAtoms=    8 NActive=    8 NUniq=    4 SFac= 4.00D+00 NAtFMM=   60 NAOKFM=F Big=F
 Integral buffers will be    131072 words long.
 Raffenetti 1 integral format.
 Two-electron integral symmetry is turned on.
 One-electron integrals computed using PRISM.
   2 Symmetry operations used in ECPInt.
 ECPInt:  NShTT=     253 NPrTT=    1559 LenC2=     254 LenP2D=    1400.
 LDataN:  DoStor=T MaxTD1= 2 Len=   12
 NBasis=    30 RedAO= T EigKep=  6.87D-03  NBF=    15    15
 NBsUse=    30 1.00D-06 EigRej= -1.00D+00 NBFU=    15    15
 Initial guess from the checkpoint file:  "/scr/Gau-3427.chk"
 B after Tr=     0.000000    0.000000    0.000000
         Rot=    1.000000    0.000000    0.000000    0.000000 Ang=   0.00 deg.
 Initial guess orbital symmetries:
       Occupied  (AG) (AU) (AG) (AU) (AU) (AU) (AG) (AG) (AG)
       Virtual   (AG) (AG) (AG) (AG) (AG) (AG) (AG) (AG) (AG) (AG)
                 (AU) (AU) (AU) (AU) (AU) (AU) (AU) (AU) (AU) (AU)
                 (AU)
 Keep R1 ints in memory in symmetry-blocked form, NReq=955405.
 Requested convergence on RMS density matrix=1.00D-08 within 128 cycles.
 Requested convergence on MAX density matrix=1.00D-06.
 Requested convergence on             energy=1.00D-06.
 No special actions if energy rises.
 SCF Done:  E(RHF) =  -79.2041199747     A.U. after    7 cycles
            NFock=  7  Conv=0.14D-08     -V/T= 2.0007
 ExpMin= 1.15D-01 ExpMax= 4.23D+03 ExpMxC= 1.46D+02 IAcc=3 IRadAn=         5 AccDes= 0.00D+00
 HarFok:  IExCor=  205 AccDes= 0.00D+00 IRadAn=         5 IDoV=-2 UseB2=F ITyADJ=14
 ICtDFT= 12500011 ScaDFX=  1.000000  1.000000  1.000000  1.000000
 Range of M.O.s used for correlation:     3    30
 NBasis=    30 NAE=     9 NBE=     9 NFC=     2 NFV=     0
 NROrb=     28 NOA=     7 NOB=     7 NVA=    21 NVB=    21
 Fully direct method using O(ONN) memory.
 JobTyp=1 Pass  1:  I=   3 to   9 NPSUse=  3 ParTrn=F ParDer=T DoDerP=T.
 Spin components of T(2) and E(2):
     alpha-alpha T2 =       0.6989731188D-02 E2=     -0.1591568647D-01
     alpha-beta  T2 =       0.5852683105D-01 E2=     -0.1469407740D+00
     beta-beta   T2 =       0.6989731188D-02 E2=     -0.1591568647D-01
 ANorm=    0.1035618797D+01
 E2 =    -0.1787721470D+00 EUMP2 =    -0.79382892121674D+02
          IDoAtm=11111111
          Differentiating once with respect to electric field.
                with respect to dipole field.
          Differentiating once with respect to nuclear coordinates.
 Keep R1 ints in memory in symmetry-blocked form, NReq=943648.
          There are     1 degrees of freedom in the 1st order CPHF.  IDoFFX=0 NUNeed=     1.
 LinEq1:  Iter=  0 NonCon=     1 RMS=2.92D-03 Max=1.64D-02 NDo=     1
 AX will form     1 AO Fock derivatives at one time.
 LinEq1:  Iter=  1 NonCon=     1 RMS=2.65D-04 Max=1.86D-03 NDo=     1
 LinEq1:  Iter=  2 NonCon=     1 RMS=8.59D-05 Max=4.78D-04 NDo=     1
 LinEq1:  Iter=  3 NonCon=     1 RMS=9.97D-06 Max=6.14D-05 NDo=     1
 LinEq1:  Iter=  4 NonCon=     1 RMS=6.73D-07 Max=3.98D-06 NDo=     1
 LinEq1:  Iter=  5 NonCon=     1 RMS=4.79D-08 Max=2.73D-07 NDo=     1
 LinEq1:  Iter=  6 NonCon=     1 RMS=4.58D-09 Max=2.83D-08 NDo=     1
 LinEq1:  Iter=  7 NonCon=     1 RMS=4.25D-10 Max=2.51D-09 NDo=     1
 LinEq1:  Iter=  8 NonCon=     0 RMS=2.68D-11 Max=1.93D-10 NDo=     1
 Linear equations converged to 1.000D-10 1.000D-09 after     8 iterations.
 End of Minotr F.D. properties file   721 does not exist.
 End of Minotr F.D. properties file   722 does not exist.
 End of Minotr F.D. properties file   788 does not exist.
   2 Symmetry operations used in ECPInt.
 ECPInt:  NShTT=     253 NPrTT=    1559 LenC2=     254 LenP2D=    1400.
 LDataN:  DoStor=T MaxTD1= 3 Len=   28
 Calling FoFJK, ICntrl=  10002127 FMM=F ISym2X=1 I1Cent= 0 IOpClX= 0 NMat=1 NMatS=1 NMatT=0.
 ***** Axes restored to original set *****
 -------------------------------------------------------------------
 Center     Atomic                   Forces (Hartrees/Bohr)
 Number     Number              X              Y              Z
 -------------------------------------------------------------------
      1        6          -0.000088287    0.000004602   -0.000000005
      2        6           0.000088287   -0.000004602    0.000000005
      3        1          -0.000018134   -0.000054180   -0.000158852
      4        1          -0.000006775    0.000165643    0.000031751
      5        1          -0.000021001   -0.000109107    0.000127085
      6        1           0.000021001    0.000109107   -0.000127085
      7        1           0.000006775   -0.000165643   -0.000031751
      8        1           0.000018134    0.000054180    0.000158852
 -------------------------------------------------------------------
 Cartesian Forces:  Max     0.000165643 RMS     0.000088177

 GradGradGradGradGradGradGradGradGradGradGradGradGradGradGradGradGradGrad
 Berny optimization.
 Using GEDIIS/GDIIS optimizer.
 FormGI is forming the generalized inverse of G from B-inverse, IUseBI=4.
 Internal  Forces:  Max     0.000151558 RMS     0.000089541
 Search for a local minimum.
 Step number   3 out of a maximum of   38
 All quantities printed in internal units (Hartrees-Bohrs-Radians)
 Mixed Optimization -- En-DIIS/RFO-DIIS
 Swapping is turned off.
 Update second derivatives using D2CorX and points    1    2    3
 DE= -3.62D-05 DEPred=-3.78D-05 R= 9.58D-01
 TightC=F SS=  1.41D+00  RLast= 1.77D-02 DXNew= 5.0454D-01 5.3157D-02
 Trust test= 9.58D-01 RLast= 1.77D-02 DXMaxT set to 3.00D-01
 ITU=  1  1  0
     Eigenvalues ---    0.00280   0.05479   0.05479   0.05479   0.05479
     Eigenvalues ---    0.16000   0.16000   0.16000   0.16000   0.16000
     Eigenvalues ---    0.17676   0.31945   0.34358   0.34549   0.34549
     Eigenvalues ---    0.34549   0.34550   0.34550
 En-DIIS/RFO-DIIS IScMMF=        0 using points:     3    2
 RFO step:  Lambda=-4.16647869D-07.
 DidBck=F Rises=F RFO-DIIS coefs:    0.93204    0.06796
 Iteration  1 RMS(Cart)=  0.00046525 RMS(Int)=  0.00000030
 Iteration  2 RMS(Cart)=  0.00000014 RMS(Int)=  0.00000028
 ClnCor:  largest displacement from symmetrization is 1.66D-08 for atom     8.
 Variable       Old X    -DE/DX   Delta X   Delta X   Delta X     New X
                                 (Linear)    (Quad)   (Total)
    R1        2.95124   0.00013   0.00074  -0.00048   0.00026   2.95151
    R2        2.08799  -0.00015  -0.00004  -0.00040  -0.00044   2.08755
    R3        2.08799  -0.00015  -0.00004  -0.00040  -0.00044   2.08755
    R4        2.08799  -0.00015  -0.00004  -0.00040  -0.00044   2.08755
    R5        2.08799  -0.00015  -0.00004  -0.00040  -0.00044   2.08755
    R6        2.08799  -0.00015  -0.00004  -0.00040  -0.00044   2.08755
    R7        2.08799  -0.00015  -0.00004  -0.00040  -0.00044   2.08755
    A1        1.93607   0.00007   0.00026   0.00012   0.00038   1.93646
    A2        1.93607   0.00007   0.00026   0.00012   0.00038   1.93646
    A3        1.93607   0.00007   0.00026   0.00012   0.00038   1.93646
    A4        1.88452  -0.00008  -0.00028  -0.00012  -0.00040   1.88412
    A5        1.88452  -0.00008  -0.00028  -0.00012  -0.00040   1.88412
    A6        1.88452  -0.00008  -0.00028  -0.00012  -0.00040   1.88412
    A7        1.93607   0.00007   0.00026   0.00012   0.00038   1.93646
    A8        1.93607   0.00007   0.00026   0.00012   0.00038   1.93646
    A9        1.93607   0.00007   0.00026   0.00012   0.00038   1.93646
   A10        1.88452  -0.00008  -0.00028  -0.00012  -0.00040   1.88412
   A11        1.88452  -0.00008  -0.00028  -0.00012  -0.00040   1.88412
   A12        1.88452  -0.00008  -0.00028  -0.00012  -0.00040   1.88412
    D1        1.04720   0.00000   0.00000   0.00000   0.00000   1.04720
    D2       -1.04720   0.00000   0.00000   0.00000   0.00000  -1.04720
    D3        3.14159   0.00000   0.00000   0.00000   0.00000   3.14159
    D4       -1.04720   0.00000   0.00000   0.00000   0.00000  -1.04720
    D5        3.14159   0.00000   0.00000   0.00000   0.00000   3.14159
    D6        1.04720   0.00000   0.00000   0.00000   0.00000   1.04720
    D7        3.14159   0.00000   0.00000   0.00000   0.00000   3.14159
    D8        1.04720   0.00000   0.00000   0.00000   0.00000   1.04720
    D9       -1.04720   0.00000   0.00000   0.00000   0.00000  -1.04720
         Item               Value     Threshold  Converged?
 Maximum Force            0.000152     0.000450     YES
 RMS     Force            0.000090     0.000300     YES
 Maximum Displacement     0.000745     0.001800     YES
 RMS     Displacement     0.000465     0.001200     YES
 Predicted change in Energy=-3.953413D-07
 Optimization completed.
    -- Stationary point found.
                           ----------------------------
                           !   Optimized Parameters   !
                           ! (Angstroms and Degrees)  !
 --------------------------                            --------------------------
 ! Name  Definition              Value          Derivative Info.                !
 --------------------------------------------------------------------------------
 ! R1    R(1,2)                  1.5617         -DE/DX =    0.0001              !
 ! R2    R(1,3)                  1.1049         -DE/DX =   -0.0002              !
 ! R3    R(1,4)                  1.1049         -DE/DX =   -0.0002              !
 ! R4    R(1,5)                  1.1049         -DE/DX =   -0.0002              !
 ! R5    R(2,6)                  1.1049         -DE/DX =   -0.0002              !
 ! R6    R(2,7)                  1.1049         -DE/DX =   -0.0002              !
 ! R7    R(2,8)                  1.1049         -DE/DX =   -0.0002              !
 ! A1    A(2,1,3)              110.9289         -DE/DX =    0.0001              !
 ! A2    A(2,1,4)              110.9289         -DE/DX =    0.0001              !
 ! A3    A(2,1,5)              110.9289         -DE/DX =    0.0001              !
 ! A4    A(3,1,4)              107.975          -DE/DX =   -0.0001              !
 ! A5    A(3,1,5)              107.975          -DE/DX =   -0.0001              !
 ! A6    A(4,1,5)              107.975          -DE/DX =   -0.0001              !
 ! A7    A(1,2,6)              110.9289         -DE/DX =    0.0001              !
 ! A8    A(1,2,7)              110.9289         -DE/DX =    0.0001              !
 ! A9    A(1,2,8)              110.9289         -DE/DX =    0.0001              !
 ! A10   A(6,2,7)              107.975          -DE/DX =   -0.0001              !
 ! A11   A(6,2,8)              107.975          -DE/DX =   -0.0001              !
 ! A12   A(7,2,8)              107.975          -DE/DX =   -0.0001              !
 ! D1    D(3,1,2,6)             60.0            -DE/DX =    0.0                 !
 ! D2    D(3,1,2,7)            -60.0            -DE/DX =    0.0                 !
 ! D3    D(3,1,2,8)            180.0            -DE/DX =    0.0                 !
 ! D4    D(4,1,2,6)            -60.0            -DE/DX =    0.0                 !
 ! D5    D(4,1,2,7)            180.0            -DE/DX =    0.0                 !
 ! D6    D(4,1,2,8)             60.0            -DE/DX =    0.0                 !
 ! D7    D(5,1,2,6)            180.0            -DE/DX =    0.0                 !
 ! D8    D(5,1,2,7)             60.0            -DE/DX =    0.0                 !
 ! D9    D(5,1,2,8)            -60.0            -DE/DX =    0.0                 !
 --------------------------------------------------------------------------------
 GradGradGradGradGradGradGradGradGradGradGradGradGradGradGradGradGradGrad

                          Input orientation:                          
 ---------------------------------------------------------------------
 Center     Atomic      Atomic             Coordinates (Angstroms)
 Number     Number       Type             X           Y           Z
 ---------------------------------------------------------------------
      1          6           0       -6.400178    0.651656   -0.000001
      2          6           0       -4.840532    0.570974    0.000001
      3          1           0       -6.776882    1.009483    0.975138
      4          1           0       -6.846693   -0.340040   -0.194951
      5          1           0       -6.759437    1.346695   -0.780190
      6          1           0       -4.481273   -0.124065    0.780190
      7          1           0       -4.394017    1.562670    0.194951
      8          1           0       -4.463828    0.213147   -0.975138
 ---------------------------------------------------------------------
                    Distance matrix (angstroms):
                    1          2          3          4          5
     1  C    0.000000
     2  C    1.561731   0.000000
     3  H    1.104917   2.211930   0.000000
     4  H    1.104917   2.211930   1.787511   0.000000
     5  H    1.104917   2.211930   1.787511   1.787511   0.000000
     6  H    2.211930   1.104917   2.567636   2.567636   3.128570
     7  H    2.211930   1.104917   2.567636   3.128570   2.567636
     8  H    2.211930   1.104917   3.128570   2.567636   2.567636
                    6          7          8
     6  H    0.000000
     7  H    1.787511   0.000000
     8  H    1.787511   1.787511   0.000000
 This structure is nearly, but not quite of a higher symmetry.
 Consider Symm=Loose if the higher symmetry is desired.
 Stoichiometry    C2H6
 Framework group  CI[X(C2H6)]
 Deg. of freedom     9
 Full point group                 CI      NOp   2
 Largest Abelian subgroup         CI      NOp   2
 Largest concise Abelian subgroup CI      NOp   2
                         Standard orientation:                         
 ---------------------------------------------------------------------
 Center     Atomic      Atomic             Coordinates (Angstroms)
 Number     Number       Type             X           Y           Z
 ---------------------------------------------------------------------
      1          6           0       -0.779823    0.040341   -0.000001
      2          6           0        0.779823   -0.040341    0.000001
      3          1           0       -1.156527    0.398168    0.975138
      4          1           0       -1.226338   -0.951355   -0.194951
      5          1           0       -1.139082    0.735380   -0.780190
      6          1           0        1.139082   -0.735380    0.780190
      7          1           0        1.226338    0.951355    0.194951
      8          1           0        1.156527   -0.398168   -0.975138
 ---------------------------------------------------------------------
 Rotational constants (GHZ):     78.4702025     19.2814417     19.2814417

 **********************************************************************

            Population analysis using the SCF density.

 **********************************************************************

 Orbital symmetries:
       Occupied  (AG) (AU) (AG) (AU) (AU) (AU) (AG) (AG) (AG)
       Virtual   (AU) (AG) (AG) (AG) (AU) (AU) (AU) (AG) (AU) (AU)
                 (AG) (AG) (AU) (AG) (AU) (AG) (AU) (AU) (AG) (AG)
                 (AU)
 The electronic state is 1-AG.
 Alpha  occ. eigenvalues --  -11.21964 -11.21912  -1.00907  -0.83992  -0.58983
 Alpha  occ. eigenvalues --   -0.58983  -0.49822  -0.48296  -0.48296
 Alpha virt. eigenvalues --    0.24933   0.27160   0.32141   0.32141   0.36070
 Alpha virt. eigenvalues --    0.36070   0.39083   0.45639   0.46872   0.46872
 Alpha virt. eigenvalues --    0.51903   0.51903   0.72599   1.15755   1.28436
 Alpha virt. eigenvalues --    1.33902   1.38051   1.38051   1.41045   1.41045
 Alpha virt. eigenvalues --    1.61186
          Condensed to atoms (all electrons):
               1          2          3          4          5          6
     1  C    5.215544   0.276162   0.381216   0.381216   0.381216  -0.044871
     2  C    0.276162   5.215544  -0.044871  -0.044871  -0.044871   0.381216
     3  H    0.381216  -0.044871   0.548295  -0.025508  -0.025508  -0.001744
     4  H    0.381216  -0.044871  -0.025508   0.548295  -0.025508  -0.001744
     5  H    0.381216  -0.044871  -0.025508  -0.025508   0.548295   0.002952
     6  H   -0.044871   0.381216  -0.001744  -0.001744   0.002952   0.548295
     7  H   -0.044871   0.381216  -0.001744   0.002952  -0.001744  -0.025508
     8  H   -0.044871   0.381216   0.002952  -0.001744  -0.001744  -0.025508
               7          8
     1  C   -0.044871  -0.044871
     2  C    0.381216   0.381216
     3  H   -0.001744   0.002952
     4  H    0.002952  -0.001744
     5  H   -0.001744  -0.001744
     6  H   -0.025508  -0.025508
     7  H    0.548295  -0.025508
     8  H   -0.025508   0.548295
 Mulliken charges:
               1
     1  C   -0.500739
     2  C   -0.500739
     3  H    0.166913
     4  H    0.166913
     5  H    0.166913
     6  H    0.166913
     7  H    0.166913
     8  H    0.166913
 Sum of Mulliken charges =   0.00000
 Mulliken charges with hydrogens summed into heavy atoms:
               1
     1  C    0.000000
     2  C    0.000000
 Electronic spatial extent (au):  <R**2>=            112.5312
 Charge=              0.0000 electrons
 Dipole moment (field-independent basis, Debye):
    X=              0.0000    Y=              0.0000    Z=              0.0000  Tot=              0.0000
 Quadrupole moment (field-independent basis, Debye-Ang):
   XX=            -15.6316   YY=            -15.0314   ZZ=            -15.0298
   XY=              0.0311   XZ=              0.0000   YZ=              0.0000
 Traceless Quadrupole moment (field-independent basis, Debye-Ang):
   XX=             -0.4007   YY=              0.1995   ZZ=              0.2011
   XY=              0.0311   XZ=              0.0000   YZ=              0.0000
 Octapole moment (field-independent basis, Debye-Ang**2):
  XXX=              0.0000  YYY=              0.0000  ZZZ=              0.0000  XYY=              0.0000
  XXY=              0.0000  XXZ=              0.0000  XZZ=              0.0000  YZZ=              0.0000
  YYZ=              0.0000  XYZ=              0.0000
 Hexadecapole moment (field-independent basis, Debye-Ang**3):
 XXXX=            -97.2142 YYYY=            -29.7447 ZZZZ=            -29.3506 XXXY=              1.9482
 XXXZ=              0.0057 YYYX=              2.6816 YYYZ=             -0.1114 ZZZX=             -0.7198
 ZZZY=              0.0372 XXYY=            -19.8402 XXZZ=            -20.0254 YYZZ=             -9.6946
 XXYZ=              0.0742 YYXZ=              0.7140 ZZXY=             -0.5944
 N-N= 4.157250496444D+01 E-N=-2.668393687647D+02  KE= 7.914922420087D+01
 Symmetry AG   KE= 4.104565704631D+01
 Symmetry AU   KE= 3.810356715456D+01
 1\1\GINC-N0286\FOpt\RMP2-FC\LANL2DZ\C2H6\GDAVIDS3\21-Feb-2017\0\\#n MP
 2/LANL2DZ Opt\\Ethane MP2 LANL2DZ\\0,1\C,-6.4001779249,0.6516556785,-0
 .0000005845\C,-4.8405320751,0.5709743215,0.0000005845\H,-6.7768824186,
 1.0094826989,0.9751383023\H,-6.8466931022,-0.3400402386,-0.1949508735\
 H,-6.7594367131,1.3466950045,-0.7801901167\H,-4.4812732869,-0.12406500
 45,0.7801901167\H,-4.3940168978,1.5626702386,0.1949508735\H,-4.4638275
 814,0.2131473011,-0.9751383023\\Version=ES64L-G09RevE.01\State=1-AG\HF
 =-79.20412\MP2=-79.3828921\RMSD=1.404e-09\RMSF=8.818e-05\Dipole=0.,0.,
 0.\PG=CI [X(C2H6)]\\@


 REALITY IS FOR PEOPLE WHO CAN'T FACE SCIENCE FICTION.
 Job cpu time:       0 days  0 hours  0 minutes 26.1 seconds.
 File lengths (MBytes):  RWF=      5 Int=      0 D2E=      0 Chk=      1 Scr=      1
 Normal termination of Gaussian 09 at Tue Feb 21 17:41:19 2017.
