 Entering Gaussian System, Link 0=g09
 Input=Ethane_MP2_3-21G.com
 Output=Ethane_MP2_3-21G.log
 Initial command:
 /sw/contrib/gaussian/g09/E01/g09/l1.exe "/scr/Gau-23430.inp" -scrdir="/scr/"
 Entering Link 1 = /sw/contrib/gaussian/g09/E01/g09/l1.exe PID=     23431.
  
 Copyright (c) 1988,1990,1992,1993,1995,1998,2003,2009,2015,
            Gaussian, Inc.  All Rights Reserved.
  
 This is part of the Gaussian(R) 09 program.  It is based on
 the Gaussian(R) 03 system (copyright 2003, Gaussian, Inc.),
 the Gaussian(R) 98 system (copyright 1998, Gaussian, Inc.),
 the Gaussian(R) 94 system (copyright 1995, Gaussian, Inc.),
 the Gaussian 92(TM) system (copyright 1992, Gaussian, Inc.),
 the Gaussian 90(TM) system (copyright 1990, Gaussian, Inc.),
 the Gaussian 88(TM) system (copyright 1988, Gaussian, Inc.),
 the Gaussian 86(TM) system (copyright 1986, Carnegie Mellon
 University), and the Gaussian 82(TM) system (copyright 1983,
 Carnegie Mellon University). Gaussian is a federally registered
 trademark of Gaussian, Inc.
  
 This software contains proprietary and confidential information,
 including trade secrets, belonging to Gaussian, Inc.
  
 This software is provided under written license and may be
 used, copied, transmitted, or stored only in accord with that
 written license.
  
 The following legend is applicable only to US Government
 contracts under FAR:
  
                    RESTRICTED RIGHTS LEGEND
  
 Use, reproduction and disclosure by the US Government is
 subject to restrictions as set forth in subparagraphs (a)
 and (c) of the Commercial Computer Software - Restricted
 Rights clause in FAR 52.227-19.
  
 Gaussian, Inc.
 340 Quinnipiac St., Bldg. 40, Wallingford CT 06492
  
  
 ---------------------------------------------------------------
 Warning -- This program may not be used in any manner that
 competes with the business of Gaussian, Inc. or will provide
 assistance to any competitor of Gaussian, Inc.  The licensee
 of this program is prohibited from giving any competitor of
 Gaussian, Inc. access to this program.  By using this program,
 the user acknowledges that Gaussian, Inc. is engaged in the
 business of creating and licensing software in the field of
 computational chemistry and represents and warrants to the
 licensee that it is not a competitor of Gaussian, Inc. and that
 it will not use this program in any manner prohibited above.
 ---------------------------------------------------------------
  

 Cite this work as:
 Gaussian 09, Revision E.01,
 M. J. Frisch, G. W. Trucks, H. B. Schlegel, G. E. Scuseria, 
 M. A. Robb, J. R. Cheeseman, G. Scalmani, V. Barone, B. Mennucci, 
 G. A. Petersson, H. Nakatsuji, M. Caricato, X. Li, H. P. Hratchian, 
 A. F. Izmaylov, J. Bloino, G. Zheng, J. L. Sonnenberg, M. Hada, 
 M. Ehara, K. Toyota, R. Fukuda, J. Hasegawa, M. Ishida, T. Nakajima, 
 Y. Honda, O. Kitao, H. Nakai, T. Vreven, J. A. Montgomery, Jr., 
 J. E. Peralta, F. Ogliaro, M. Bearpark, J. J. Heyd, E. Brothers, 
 K. N. Kudin, V. N. Staroverov, T. Keith, R. Kobayashi, J. Normand, 
 K. Raghavachari, A. Rendell, J. C. Burant, S. S. Iyengar, J. Tomasi, 
 M. Cossi, N. Rega, J. M. Millam, M. Klene, J. E. Knox, J. B. Cross, 
 V. Bakken, C. Adamo, J. Jaramillo, R. Gomperts, R. E. Stratmann, 
 O. Yazyev, A. J. Austin, R. Cammi, C. Pomelli, J. W. Ochterski, 
 R. L. Martin, K. Morokuma, V. G. Zakrzewski, G. A. Voth, 
 P. Salvador, J. J. Dannenberg, S. Dapprich, A. D. Daniels, 
 O. Farkas, J. B. Foresman, J. V. Ortiz, J. Cioslowski, 
 and D. J. Fox, Gaussian, Inc., Wallingford CT, 2013.
 
 ******************************************
 Gaussian 09:  ES64L-G09RevE.01 30-Nov-2015
                21-Feb-2017 
 ******************************************
 %NProcShared=8
 Will use up to    8 processors via shared memory.
 ----------------
 #n MP2/3-21G Opt
 ----------------
 1/18=20,19=15,38=1/1,3;
 2/9=110,12=2,17=6,18=5,40=1/2;
 3/5=5,11=9,16=1,25=1,30=1,71=1/1,2,3;
 4//1;
 5/5=2,38=5/2;
 8/6=4,10=1/1;
 9/15=2,16=-3/6;
 10/5=1/2;
 6/7=2,8=2,9=2,10=2/1;
 7/12=2/1,2,3,16;
 1/18=20,19=15/3(2);
 2/9=110/2;
 99//99;
 2/9=110/2;
 3/5=5,11=9,16=1,25=1,30=1,71=1/1,2,3;
 4/5=5,16=3,69=1/1;
 5/5=2,38=5/2;
 8/6=4,10=1/1;
 9/15=2,16=-3/6;
 10/5=1/2;
 7/12=2/1,2,3,16;
 1/18=20,19=15/3(-8);
 2/9=110/2;
 6/7=2,8=2,9=2,10=2/1;
 99//99;
 ----------------
 Ethane MP2 3-21G
 ----------------
 Symbolic Z-matrix:
 Charge =  0 Multiplicity = 1
 C                    -6.3877    0.65101   0. 
 C                    -4.85301   0.57162   0. 
 H                    -6.75069   1.00542   0.96733 
 H                    -6.81994  -0.3333   -0.19339 
 H                    -6.73338   1.33993  -0.77394 
 H                    -4.50733  -0.1173    0.77394 
 H                    -4.42077   1.55593   0.19339 
 H                    -4.49002   0.21721  -0.96733 
 

 GradGradGradGradGradGradGradGradGradGradGradGradGradGradGradGradGradGrad
 Berny optimization.
 Initialization pass.
                           ----------------------------
                           !    Initial Parameters    !
                           ! (Angstroms and Degrees)  !
 --------------------------                            --------------------------
 ! Name  Definition              Value          Derivative Info.                !
 --------------------------------------------------------------------------------
 ! R1    R(1,2)                  1.5367         estimate D2E/DX2                !
 ! R2    R(1,3)                  1.0923         estimate D2E/DX2                !
 ! R3    R(1,4)                  1.0923         estimate D2E/DX2                !
 ! R4    R(1,5)                  1.0923         estimate D2E/DX2                !
 ! R5    R(2,6)                  1.0923         estimate D2E/DX2                !
 ! R6    R(2,7)                  1.0923         estimate D2E/DX2                !
 ! R7    R(2,8)                  1.0923         estimate D2E/DX2                !
 ! A1    A(2,1,3)              110.4041         estimate D2E/DX2                !
 ! A2    A(2,1,4)              110.4039         estimate D2E/DX2                !
 ! A3    A(2,1,5)              110.4038         estimate D2E/DX2                !
 ! A4    A(3,1,4)              108.5227         estimate D2E/DX2                !
 ! A5    A(3,1,5)              108.5224         estimate D2E/DX2                !
 ! A6    A(4,1,5)              108.5227         estimate D2E/DX2                !
 ! A7    A(1,2,6)              110.4038         estimate D2E/DX2                !
 ! A8    A(1,2,7)              110.4039         estimate D2E/DX2                !
 ! A9    A(1,2,8)              110.4041         estimate D2E/DX2                !
 ! A10   A(6,2,7)              108.5227         estimate D2E/DX2                !
 ! A11   A(6,2,8)              108.5224         estimate D2E/DX2                !
 ! A12   A(7,2,8)              108.5227         estimate D2E/DX2                !
 ! D1    D(3,1,2,6)             60.0002         estimate D2E/DX2                !
 ! D2    D(3,1,2,7)            -59.9998         estimate D2E/DX2                !
 ! D3    D(3,1,2,8)            180.0            estimate D2E/DX2                !
 ! D4    D(4,1,2,6)            -60.0            estimate D2E/DX2                !
 ! D5    D(4,1,2,7)            180.0            estimate D2E/DX2                !
 ! D6    D(4,1,2,8)             59.9998         estimate D2E/DX2                !
 ! D7    D(5,1,2,6)            180.0            estimate D2E/DX2                !
 ! D8    D(5,1,2,7)             60.0            estimate D2E/DX2                !
 ! D9    D(5,1,2,8)            -60.0002         estimate D2E/DX2                !
 --------------------------------------------------------------------------------
 Trust Radius=3.00D-01 FncErr=1.00D-07 GrdErr=1.00D-07
 Number of steps in this run=     38 maximum allowed number of steps=    100.
 GradGradGradGradGradGradGradGradGradGradGradGradGradGradGradGradGradGrad

                          Input orientation:                          
 ---------------------------------------------------------------------
 Center     Atomic      Atomic             Coordinates (Angstroms)
 Number     Number       Type             X           Y           Z
 ---------------------------------------------------------------------
      1          6           0       -6.387700    0.651010    0.000000
      2          6           0       -4.853010    0.571620    0.000000
      3          1           0       -6.750690    1.005420    0.967330
      4          1           0       -6.819940   -0.333300   -0.193390
      5          1           0       -6.733380    1.339930   -0.773940
      6          1           0       -4.507330   -0.117300    0.773940
      7          1           0       -4.420770    1.555930    0.193390
      8          1           0       -4.490020    0.217210   -0.967330
 ---------------------------------------------------------------------
                    Distance matrix (angstroms):
                    1          2          3          4          5
     1  C    0.000000
     2  C    1.536742   0.000000
     3  H    1.092289   2.173729   0.000000
     4  H    1.092290   2.173728   1.773200   0.000000
     5  H    1.092286   2.173724   1.773194   1.773198   0.000000
     6  H    2.173724   1.092286   2.516061   2.516058   3.078108
     7  H    2.173728   1.092290   2.516063   3.078117   2.516058
     8  H    2.173729   1.092289   3.078118   2.516063   2.516061
                    6          7          8
     6  H    0.000000
     7  H    1.773198   0.000000
     8  H    1.773194   1.773200   0.000000
 This structure is nearly, but not quite of a higher symmetry.
 Consider Symm=Loose if the higher symmetry is desired.
 Stoichiometry    C2H6
 Framework group  CI[X(C2H6)]
 Deg. of freedom     9
 Full point group                 CI      NOp   2
 Largest Abelian subgroup         CI      NOp   2
 Largest concise Abelian subgroup CI      NOp   2
                         Standard orientation:                         
 ---------------------------------------------------------------------
 Center     Atomic      Atomic             Coordinates (Angstroms)
 Number     Number       Type             X           Y           Z
 ---------------------------------------------------------------------
      1          6           0       -0.767345    0.039695    0.000000
      2          6           0        0.767345   -0.039695    0.000000
      3          1           0       -1.130335    0.394105    0.967330
      4          1           0       -1.199585   -0.944615   -0.193390
      5          1           0       -1.113025    0.728615   -0.773940
      6          1           0        1.113025   -0.728615    0.773940
      7          1           0        1.199585    0.944615    0.193390
      8          1           0        1.130335   -0.394105   -0.967330
 ---------------------------------------------------------------------
 Rotational constants (GHZ):     79.7421566     19.9565168     19.9564985
 Standard basis: 3-21G (6D, 7F)
 There are    15 symmetry adapted cartesian basis functions of AG  symmetry.
 There are    15 symmetry adapted cartesian basis functions of AU  symmetry.
 There are    15 symmetry adapted basis functions of AG  symmetry.
 There are    15 symmetry adapted basis functions of AU  symmetry.
    30 basis functions,    48 primitive gaussians,    30 cartesian basis functions
     9 alpha electrons        9 beta electrons
       nuclear repulsion energy        42.1695770054 Hartrees.
 NAtoms=    8 NActive=    8 NUniq=    4 SFac= 4.00D+00 NAtFMM=   60 NAOKFM=F Big=F
 Integral buffers will be    131072 words long.
 Raffenetti 1 integral format.
 Two-electron integral symmetry is turned on.
 One-electron integrals computed using PRISM.
 NBasis=    30 RedAO= T EigKep=  1.33D-02  NBF=    15    15
 NBsUse=    30 1.00D-06 EigRej= -1.00D+00 NBFU=    15    15
 ExpMin= 1.83D-01 ExpMax= 1.72D+02 ExpMxC= 1.72D+02 IAcc=1 IRadAn=         1 AccDes= 0.00D+00
 Harris functional with IExCor=  205 and IRadAn=       1 diagonalized for initial guess.
 HarFok:  IExCor=  205 AccDes= 0.00D+00 IRadAn=         1 IDoV= 1 UseB2=F ITyADJ=14
 ICtDFT=  3500011 ScaDFX=  1.000000  1.000000  1.000000  1.000000
 FoFCou: FMM=F IPFlag=           0 FMFlag=      100000 FMFlg1=           0
         NFxFlg=           0 DoJE=T BraDBF=F KetDBF=T FulRan=T
         wScrn=  0.000000 ICntrl=     500 IOpCl=  0 I1Cent=   200000004 NGrid=           0
         NMat0=    1 NMatS0=      1 NMatT0=    0 NMatD0=    1 NMtDS0=    0 NMtDT0=    0
 Petite list used in FoFCou.
 Initial guess orbital symmetries:
       Occupied  (AU) (AG) (AG) (AU) (AU) (AU) (AG) (AG) (AG)
       Virtual   (AG) (AU) (AU) (AU) (AG) (AG) (AU) (AU) (AU) (AG)
                 (AU) (AG) (AG) (AG) (AU) (AU) (AG) (AG) (AU) (AG)
                 (AU)
 The electronic state of the initial guess is 1-AG.
 Keep R1 ints in memory in symmetry-blocked form, NReq=940952.
 Requested convergence on RMS density matrix=1.00D-08 within 128 cycles.
 Requested convergence on MAX density matrix=1.00D-06.
 Requested convergence on             energy=1.00D-06.
 No special actions if energy rises.
 SCF Done:  E(RHF) =  -78.7935859918     A.U. after    9 cycles
            NFock=  9  Conv=0.65D-09     -V/T= 2.0026
 ExpMin= 1.83D-01 ExpMax= 1.72D+02 ExpMxC= 1.72D+02 IAcc=3 IRadAn=         5 AccDes= 0.00D+00
 HarFok:  IExCor=  205 AccDes= 0.00D+00 IRadAn=         5 IDoV=-2 UseB2=F ITyADJ=14
 ICtDFT= 12500011 ScaDFX=  1.000000  1.000000  1.000000  1.000000
 Range of M.O.s used for correlation:     3    30
 NBasis=    30 NAE=     9 NBE=     9 NFC=     2 NFV=     0
 NROrb=     28 NOA=     7 NOB=     7 NVA=    21 NVB=    21
 Fully direct method using O(ONN) memory.
 JobTyp=1 Pass  1:  I=   3 to   9 NPSUse=  3 ParTrn=F ParDer=T DoDerP=T.
 Spin components of T(2) and E(2):
     alpha-alpha T2 =       0.6351406381D-02 E2=     -0.1748690253D-01
     alpha-beta  T2 =       0.5541492248D-01 E2=     -0.1533068202D+00
     beta-beta   T2 =       0.6351406381D-02 E2=     -0.1748690253D-01
 ANorm=    0.1033497816D+01
 E2 =    -0.1882806253D+00 EUMP2 =    -0.78981866617164D+02
          IDoAtm=11111111
          Differentiating once with respect to electric field.
                with respect to dipole field.
          Differentiating once with respect to nuclear coordinates.
 Keep R1 ints in memory in symmetry-blocked form, NReq=923085.
          There are     1 degrees of freedom in the 1st order CPHF.  IDoFFX=0 NUNeed=     1.
 LinEq1:  Iter=  0 NonCon=     1 RMS=3.89D-03 Max=2.09D-02 NDo=     1
 AX will form     1 AO Fock derivatives at one time.
 LinEq1:  Iter=  1 NonCon=     1 RMS=1.61D-03 Max=7.82D-03 NDo=     1
 LinEq1:  Iter=  2 NonCon=     1 RMS=1.12D-04 Max=6.35D-04 NDo=     1
 LinEq1:  Iter=  3 NonCon=     1 RMS=7.43D-06 Max=4.10D-05 NDo=     1
 LinEq1:  Iter=  4 NonCon=     1 RMS=4.84D-07 Max=2.21D-06 NDo=     1
 LinEq1:  Iter=  5 NonCon=     1 RMS=2.49D-08 Max=1.23D-07 NDo=     1
 LinEq1:  Iter=  6 NonCon=     1 RMS=1.93D-09 Max=1.69D-08 NDo=     1
 LinEq1:  Iter=  7 NonCon=     1 RMS=1.88D-10 Max=1.36D-09 NDo=     1
 LinEq1:  Iter=  8 NonCon=     0 RMS=1.59D-11 Max=7.28D-11 NDo=     1
 Linear equations converged to 1.000D-10 1.000D-09 after     8 iterations.
 End of Minotr F.D. properties file   721 does not exist.
 End of Minotr F.D. properties file   722 does not exist.
 End of Minotr F.D. properties file   788 does not exist.

 **********************************************************************

            Population analysis using the SCF density.

 **********************************************************************

 Orbital symmetries:
       Occupied  (AU) (AG) (AG) (AU) (AU) (AU) (AG) (AG) (AG)
       Virtual   (AG) (AU) (AU) (AU) (AG) (AG) (AU) (AU) (AU) (AG)
                 (AU) (AG) (AG) (AG) (AG) (AG) (AU) (AU) (AU) (AG)
                 (AU)
 The electronic state is 1-AG.
 Alpha  occ. eigenvalues --  -11.15460 -11.15437  -1.01891  -0.84098  -0.59906
 Alpha  occ. eigenvalues --   -0.59906  -0.50181  -0.48455  -0.48455
 Alpha virt. eigenvalues --    0.27667   0.33739   0.33739   0.34225   0.36824
 Alpha virt. eigenvalues --    0.36824   0.42486   0.91196   0.91196   0.96933
 Alpha virt. eigenvalues --    1.07515   1.08736   1.08737   1.27972   1.36409
 Alpha virt. eigenvalues --    1.36409   1.36428   1.36428   1.44205   1.93791
 Alpha virt. eigenvalues --    2.29961
          Condensed to atoms (all electrons):
               1          2          3          4          5          6
     1  C    5.352366   0.239102   0.378272   0.378272   0.378271  -0.043618
     2  C    0.239102   5.352366  -0.043617  -0.043617  -0.043618   0.378271
     3  H    0.378272  -0.043617   0.520122  -0.026278  -0.026278  -0.001835
     4  H    0.378272  -0.043617  -0.026278   0.520123  -0.026278  -0.001835
     5  H    0.378271  -0.043618  -0.026278  -0.026278   0.520122   0.002973
     6  H   -0.043618   0.378271  -0.001835  -0.001835   0.002973   0.520122
     7  H   -0.043617   0.378272  -0.001835   0.002973  -0.001835  -0.026278
     8  H   -0.043617   0.378272   0.002973  -0.001835  -0.001835  -0.026278
               7          8
     1  C   -0.043617  -0.043617
     2  C    0.378272   0.378272
     3  H   -0.001835   0.002973
     4  H    0.002973  -0.001835
     5  H   -0.001835  -0.001835
     6  H   -0.026278  -0.026278
     7  H    0.520123  -0.026278
     8  H   -0.026278   0.520122
 Mulliken charges:
               1
     1  C   -0.595430
     2  C   -0.595430
     3  H    0.198476
     4  H    0.198476
     5  H    0.198478
     6  H    0.198478
     7  H    0.198476
     8  H    0.198476
 Sum of Mulliken charges =   0.00000
 Mulliken charges with hydrogens summed into heavy atoms:
               1
     1  C    0.000000
     2  C    0.000000
 Electronic spatial extent (au):  <R**2>=            110.0593
 Charge=              0.0000 electrons
 Dipole moment (field-independent basis, Debye):
    X=              0.0000    Y=              0.0000    Z=              0.0000  Tot=              0.0000
 Quadrupole moment (field-independent basis, Debye-Ang):
   XX=            -15.6646   YY=            -15.0386   ZZ=            -15.0369
   XY=              0.0325   XZ=              0.0000   YZ=              0.0000
 Traceless Quadrupole moment (field-independent basis, Debye-Ang):
   XX=             -0.4179   YY=              0.2081   ZZ=              0.2098
   XY=              0.0325   XZ=              0.0000   YZ=              0.0000
 Octapole moment (field-independent basis, Debye-Ang**2):
  XXX=              0.0000  YYY=              0.0000  ZZZ=              0.0000  XYY=              0.0000
  XXY=              0.0000  XXZ=              0.0000  XZZ=              0.0000  YZZ=              0.0000
  YYZ=              0.0000  XYZ=              0.0000
 Hexadecapole moment (field-independent basis, Debye-Ang**3):
 XXXX=            -92.8860 YYYY=            -28.5263 ZZZZ=            -28.1213 XXXY=              1.8752
 XXXZ=              0.0063 YYYX=              2.6906 YYYZ=             -0.1210 ZZZX=             -0.7818
 ZZZY=              0.0404 XXYY=            -18.8615 XXZZ=            -19.0675 YYZZ=             -9.2734
 XXYZ=              0.0806 YYXZ=              0.7756 ZZXY=             -0.7196
 N-N= 4.216957700541D+01 E-N=-2.668396166978D+02  KE= 7.858904402973D+01
 Symmetry AG   KE= 4.076384570807D+01
 Symmetry AU   KE= 3.782519832166D+01
 Calling FoFJK, ICntrl=  10002127 FMM=F ISym2X=1 I1Cent= 0 IOpClX= 0 NMat=1 NMatS=1 NMatT=0.
 ***** Axes restored to original set *****
 -------------------------------------------------------------------
 Center     Atomic                   Forces (Hartrees/Bohr)
 Number     Number              X              Y              Z
 -------------------------------------------------------------------
      1        6          -0.003659276    0.000188050    0.000000703
      2        6           0.003659276   -0.000188050   -0.000000703
      3        1          -0.001798812    0.000444360    0.001013459
      4        1          -0.001871505   -0.000957093   -0.000202431
      5        1          -0.001781868    0.000796173   -0.000812380
      6        1           0.001781868   -0.000796173    0.000812380
      7        1           0.001871505    0.000957093    0.000202431
      8        1           0.001798812   -0.000444360   -0.001013459
 -------------------------------------------------------------------
 Cartesian Forces:  Max     0.003659276 RMS     0.001494835

 GradGradGradGradGradGradGradGradGradGradGradGradGradGradGradGradGradGrad
 Berny optimization.
 FormGI is forming the generalized inverse of G from B-inverse, IUseBI=4.
 Internal  Forces:  Max     0.009123652 RMS     0.002081296
 Search for a local minimum.
 Step number   1 out of a maximum of   38
 All quantities printed in internal units (Hartrees-Bohrs-Radians)
 Mixed Optimization -- RFO/linear search
 Second derivative matrix not updated -- first step.
 ITU=  0
     Eigenvalues ---    0.00280   0.05575   0.05575   0.05575   0.05575
     Eigenvalues ---    0.16000   0.16000   0.16000   0.16000   0.16000
     Eigenvalues ---    0.16000   0.28809   0.34549   0.34549   0.34549
     Eigenvalues ---    0.34549   0.34550   0.34550
 RFO step:  Lambda=-4.71649874D-04 EMin= 2.79920382D-03
 Linear search not attempted -- first point.
 Iteration  1 RMS(Cart)=  0.01604920 RMS(Int)=  0.00003773
 Iteration  2 RMS(Cart)=  0.00002776 RMS(Int)=  0.00002212
 Iteration  3 RMS(Cart)=  0.00000000 RMS(Int)=  0.00002212
 ClnCor:  largest displacement from symmetrization is 1.22D-08 for atom     8.
 Variable       Old X    -DE/DX   Delta X   Delta X   Delta X     New X
                                 (Linear)    (Quad)   (Total)
    R1        2.90402   0.00912   0.00000   0.03162   0.03162   2.93564
    R2        2.06413   0.00164   0.00000   0.00474   0.00474   2.06887
    R3        2.06413   0.00164   0.00000   0.00474   0.00474   2.06887
    R4        2.06412   0.00164   0.00000   0.00475   0.00475   2.06887
    R5        2.06412   0.00164   0.00000   0.00475   0.00475   2.06887
    R6        2.06413   0.00164   0.00000   0.00474   0.00474   2.06887
    R7        2.06413   0.00164   0.00000   0.00474   0.00474   2.06887
    A1        1.92691   0.00133   0.00000   0.00828   0.00824   1.93516
    A2        1.92691   0.00133   0.00000   0.00828   0.00824   1.93516
    A3        1.92691   0.00133   0.00000   0.00828   0.00825   1.93516
    A4        1.89408  -0.00137   0.00000  -0.00856  -0.00859   1.88548
    A5        1.89407  -0.00137   0.00000  -0.00856  -0.00859   1.88548
    A6        1.89408  -0.00137   0.00000  -0.00856  -0.00859   1.88548
    A7        1.92691   0.00133   0.00000   0.00828   0.00825   1.93516
    A8        1.92691   0.00133   0.00000   0.00828   0.00824   1.93516
    A9        1.92691   0.00133   0.00000   0.00828   0.00824   1.93516
   A10        1.89408  -0.00137   0.00000  -0.00856  -0.00859   1.88548
   A11        1.89407  -0.00137   0.00000  -0.00856  -0.00859   1.88548
   A12        1.89408  -0.00137   0.00000  -0.00856  -0.00859   1.88548
    D1        1.04720   0.00000   0.00000   0.00000   0.00000   1.04720
    D2       -1.04719   0.00000   0.00000   0.00000   0.00000  -1.04720
    D3        3.14159   0.00000   0.00000   0.00000   0.00000   3.14159
    D4       -1.04720   0.00000   0.00000   0.00000   0.00000  -1.04720
    D5        3.14159   0.00000   0.00000   0.00000   0.00000   3.14159
    D6        1.04719   0.00000   0.00000   0.00000   0.00000   1.04720
    D7        3.14159   0.00000   0.00000   0.00000   0.00000   3.14159
    D8        1.04720   0.00000   0.00000   0.00000   0.00000   1.04720
    D9       -1.04720   0.00000   0.00000   0.00000   0.00000  -1.04720
         Item               Value     Threshold  Converged?
 Maximum Force            0.009124     0.000450     NO 
 RMS     Force            0.002081     0.000300     NO 
 Maximum Displacement     0.033437     0.001800     NO 
 RMS     Displacement     0.016055     0.001200     NO 
 Predicted change in Energy=-2.362930D-04
 GradGradGradGradGradGradGradGradGradGradGradGradGradGradGradGradGradGrad

                          Input orientation:                          
 ---------------------------------------------------------------------
 Center     Atomic      Atomic             Coordinates (Angstroms)
 Number     Number       Type             X           Y           Z
 ---------------------------------------------------------------------
      1          6           0       -6.396054    0.651443   -0.000001
      2          6           0       -4.844656    0.571187    0.000001
      3          1           0       -6.768365    1.006060    0.966545
      4          1           0       -6.837561   -0.331570   -0.193233
      5          1           0       -6.751074    1.340302   -0.773315
      6          1           0       -4.489636   -0.117672    0.773315
      7          1           0       -4.403149    1.554200    0.193233
      8          1           0       -4.472345    0.216570   -0.966545
 ---------------------------------------------------------------------
                    Distance matrix (angstroms):
                    1          2          3          4          5
     1  C    0.000000
     2  C    1.553473   0.000000
     3  H    1.094797   2.196356   0.000000
     4  H    1.094797   2.196356   1.771758   0.000000
     5  H    1.094797   2.196358   1.771759   1.771759   0.000000
     6  H    2.196358   1.094797   2.548081   2.548082   3.103523
     7  H    2.196356   1.094797   2.548080   3.103521   2.548082
     8  H    2.196356   1.094797   3.103520   2.548080   2.548081
                    6          7          8
     6  H    0.000000
     7  H    1.771759   0.000000
     8  H    1.771759   1.771758   0.000000
 Stoichiometry    C2H6
 Framework group  CI[X(C2H6)]
 Deg. of freedom     9
 Full point group                 CI      NOp   2
 Largest Abelian subgroup         CI      NOp   2
 Largest concise Abelian subgroup CI      NOp   2
                         Standard orientation:                         
 ---------------------------------------------------------------------
 Center     Atomic      Atomic             Coordinates (Angstroms)
 Number     Number       Type             X           Y           Z
 ---------------------------------------------------------------------
      1          6           0       -0.775699    0.040128   -0.000001
      2          6           0        0.775699   -0.040128    0.000001
      3          1           0       -1.148010    0.394745    0.966545
      4          1           0       -1.217206   -0.942885   -0.193233
      5          1           0       -1.130719    0.728987   -0.773315
      6          1           0        1.130719   -0.728987    0.773315
      7          1           0        1.217206    0.942885    0.193233
      8          1           0        1.148010   -0.394745   -0.966545
 ---------------------------------------------------------------------
 Rotational constants (GHZ):     79.8717091     19.5301957     19.5301933
 Standard basis: 3-21G (6D, 7F)
 There are    15 symmetry adapted cartesian basis functions of AG  symmetry.
 There are    15 symmetry adapted cartesian basis functions of AU  symmetry.
 There are    15 symmetry adapted basis functions of AG  symmetry.
 There are    15 symmetry adapted basis functions of AU  symmetry.
    30 basis functions,    48 primitive gaussians,    30 cartesian basis functions
     9 alpha electrons        9 beta electrons
       nuclear repulsion energy        41.8871792708 Hartrees.
 NAtoms=    8 NActive=    8 NUniq=    4 SFac= 4.00D+00 NAtFMM=   60 NAOKFM=F Big=F
 Integral buffers will be    131072 words long.
 Raffenetti 1 integral format.
 Two-electron integral symmetry is turned on.
 One-electron integrals computed using PRISM.
 NBasis=    30 RedAO= T EigKep=  1.40D-02  NBF=    15    15
 NBsUse=    30 1.00D-06 EigRej= -1.00D+00 NBFU=    15    15
 Initial guess from the checkpoint file:  "/scr/Gau-23431.chk"
 B after Tr=     0.000000    0.000000    0.000000
         Rot=    1.000000    0.000000    0.000000    0.000000 Ang=   0.00 deg.
 Initial guess orbital symmetries:
       Occupied  (AU) (AG) (AG) (AU) (AU) (AU) (AG) (AG) (AG)
       Virtual   (AG) (AG) (AG) (AG) (AG) (AG) (AG) (AG) (AG) (AG)
                 (AU) (AU) (AU) (AU) (AU) (AU) (AU) (AU) (AU) (AU)
                 (AU)
 ExpMin= 1.83D-01 ExpMax= 1.72D+02 ExpMxC= 1.72D+02 IAcc=1 IRadAn=         1 AccDes= 0.00D+00
 Harris functional with IExCor=  205 and IRadAn=       1 diagonalized for initial guess.
 HarFok:  IExCor=  205 AccDes= 0.00D+00 IRadAn=         1 IDoV= 1 UseB2=F ITyADJ=14
 ICtDFT=  3500011 ScaDFX=  1.000000  1.000000  1.000000  1.000000
 FoFCou: FMM=F IPFlag=           0 FMFlag=      100000 FMFlg1=           0
         NFxFlg=           0 DoJE=T BraDBF=F KetDBF=T FulRan=T
         wScrn=  0.000000 ICntrl=     500 IOpCl=  0 I1Cent=   200000004 NGrid=           0
         NMat0=    1 NMatS0=      1 NMatT0=    0 NMatD0=    1 NMtDS0=    0 NMtDT0=    0
 Petite list used in FoFCou.
 Keep R1 ints in memory in symmetry-blocked form, NReq=941006.
 Requested convergence on RMS density matrix=1.00D-08 within 128 cycles.
 Requested convergence on MAX density matrix=1.00D-06.
 Requested convergence on             energy=1.00D-06.
 No special actions if energy rises.
 SCF Done:  E(RHF) =  -78.7934120440     A.U. after    7 cycles
            NFock=  7  Conv=0.74D-08     -V/T= 2.0033
 ExpMin= 1.83D-01 ExpMax= 1.72D+02 ExpMxC= 1.72D+02 IAcc=3 IRadAn=         5 AccDes= 0.00D+00
 HarFok:  IExCor=  205 AccDes= 0.00D+00 IRadAn=         5 IDoV=-2 UseB2=F ITyADJ=14
 ICtDFT= 12500011 ScaDFX=  1.000000  1.000000  1.000000  1.000000
 Range of M.O.s used for correlation:     3    30
 NBasis=    30 NAE=     9 NBE=     9 NFC=     2 NFV=     0
 NROrb=     28 NOA=     7 NOB=     7 NVA=    21 NVB=    21
 Fully direct method using O(ONN) memory.
 JobTyp=1 Pass  1:  I=   3 to   9 NPSUse=  3 ParTrn=F ParDer=T DoDerP=T.
 Spin components of T(2) and E(2):
     alpha-alpha T2 =       0.6369124372D-02 E2=     -0.1747211347D-01
     alpha-beta  T2 =       0.5581776744D-01 E2=     -0.1536836096D+00
     beta-beta   T2 =       0.6369124372D-02 E2=     -0.1747211347D-01
 ANorm=    0.1033709832D+01
 E2 =    -0.1886278366D+00 EUMP2 =    -0.78982039880540D+02
          IDoAtm=11111111
          Differentiating once with respect to electric field.
                with respect to dipole field.
          Differentiating once with respect to nuclear coordinates.
 Keep R1 ints in memory in symmetry-blocked form, NReq=923085.
          There are     1 degrees of freedom in the 1st order CPHF.  IDoFFX=0 NUNeed=     1.
 LinEq1:  Iter=  0 NonCon=     1 RMS=3.97D-03 Max=2.28D-02 NDo=     1
 AX will form     1 AO Fock derivatives at one time.
 LinEq1:  Iter=  1 NonCon=     1 RMS=1.64D-03 Max=1.09D-02 NDo=     1
 LinEq1:  Iter=  2 NonCon=     1 RMS=1.13D-04 Max=6.61D-04 NDo=     1
 LinEq1:  Iter=  3 NonCon=     1 RMS=7.54D-06 Max=4.10D-05 NDo=     1
 LinEq1:  Iter=  4 NonCon=     1 RMS=4.87D-07 Max=2.41D-06 NDo=     1
 LinEq1:  Iter=  5 NonCon=     1 RMS=2.49D-08 Max=1.28D-07 NDo=     1
 LinEq1:  Iter=  6 NonCon=     1 RMS=1.87D-09 Max=1.46D-08 NDo=     1
 LinEq1:  Iter=  7 NonCon=     1 RMS=1.69D-10 Max=1.24D-09 NDo=     1
 LinEq1:  Iter=  8 NonCon=     0 RMS=1.54D-11 Max=7.16D-11 NDo=     1
 Linear equations converged to 1.000D-10 1.000D-09 after     8 iterations.
 End of Minotr F.D. properties file   721 does not exist.
 End of Minotr F.D. properties file   722 does not exist.
 End of Minotr F.D. properties file   788 does not exist.
 Calling FoFJK, ICntrl=  10002127 FMM=F ISym2X=1 I1Cent= 0 IOpClX= 0 NMat=1 NMatS=1 NMatT=0.
 ***** Axes restored to original set *****
 -------------------------------------------------------------------
 Center     Atomic                   Forces (Hartrees/Bohr)
 Number     Number              X              Y              Z
 -------------------------------------------------------------------
      1        6           0.000247817   -0.000012917    0.000000302
      2        6          -0.000247817    0.000012917   -0.000000302
      3        1           0.000545087    0.000038585    0.000192311
      4        1           0.000531368   -0.000227669   -0.000038515
      5        1           0.000548784    0.000104970   -0.000153813
      6        1          -0.000548784   -0.000104970    0.000153813
      7        1          -0.000531368    0.000227669    0.000038515
      8        1          -0.000545087   -0.000038585   -0.000192311
 -------------------------------------------------------------------
 Cartesian Forces:  Max     0.000548784 RMS     0.000298424

 GradGradGradGradGradGradGradGradGradGradGradGradGradGradGradGradGradGrad
 Berny optimization.
 Using GEDIIS/GDIIS optimizer.
 FormGI is forming the generalized inverse of G from B-inverse, IUseBI=4.
 Internal  Forces:  Max     0.001875568 RMS     0.000521545
 Search for a local minimum.
 Step number   2 out of a maximum of   38
 All quantities printed in internal units (Hartrees-Bohrs-Radians)
 Mixed Optimization -- En-DIIS/RFO-DIIS
 Update second derivatives using D2CorX and points    1    2
 DE= -1.73D-04 DEPred=-2.36D-04 R= 7.33D-01
 TightC=F SS=  1.41D+00  RLast= 4.46D-02 DXNew= 5.0454D-01 1.3367D-01
 Trust test= 7.33D-01 RLast= 4.46D-02 DXMaxT set to 3.00D-01
 ITU=  1  0
 Use linear search instead of GDIIS.
     Eigenvalues ---    0.00280   0.05488   0.05488   0.05488   0.05488
     Eigenvalues ---    0.16000   0.16000   0.16000   0.16000   0.16000
     Eigenvalues ---    0.18080   0.32563   0.33910   0.34549   0.34549
     Eigenvalues ---    0.34549   0.34550   0.34550
 RFO step:  Lambda=-5.24294825D-06 EMin= 2.79920382D-03
 Quartic linear search produced a step of -0.20626.
 Iteration  1 RMS(Cart)=  0.00385480 RMS(Int)=  0.00000505
 Iteration  2 RMS(Cart)=  0.00000541 RMS(Int)=  0.00000196
 Iteration  3 RMS(Cart)=  0.00000000 RMS(Int)=  0.00000196
 ClnCor:  largest displacement from symmetrization is 1.27D-08 for atom     8.
 Variable       Old X    -DE/DX   Delta X   Delta X   Delta X     New X
                                 (Linear)    (Quad)   (Total)
    R1        2.93564  -0.00188  -0.00652   0.00153  -0.00499   2.93065
    R2        2.06887   0.00000  -0.00098   0.00100   0.00002   2.06889
    R3        2.06887   0.00000  -0.00098   0.00100   0.00002   2.06889
    R4        2.06887   0.00000  -0.00098   0.00100   0.00002   2.06889
    R5        2.06887   0.00000  -0.00098   0.00100   0.00002   2.06889
    R6        2.06887   0.00000  -0.00098   0.00100   0.00002   2.06889
    R7        2.06887   0.00000  -0.00098   0.00100   0.00002   2.06889
    A1        1.93516  -0.00057  -0.00170  -0.00112  -0.00282   1.93234
    A2        1.93516  -0.00057  -0.00170  -0.00112  -0.00282   1.93234
    A3        1.93516  -0.00057  -0.00170  -0.00112  -0.00282   1.93234
    A4        1.88548   0.00060   0.00177   0.00118   0.00295   1.88844
    A5        1.88548   0.00060   0.00177   0.00118   0.00295   1.88844
    A6        1.88548   0.00060   0.00177   0.00118   0.00295   1.88844
    A7        1.93516  -0.00057  -0.00170  -0.00112  -0.00282   1.93234
    A8        1.93516  -0.00057  -0.00170  -0.00112  -0.00282   1.93234
    A9        1.93516  -0.00057  -0.00170  -0.00112  -0.00282   1.93234
   A10        1.88548   0.00060   0.00177   0.00118   0.00295   1.88844
   A11        1.88548   0.00060   0.00177   0.00118   0.00295   1.88844
   A12        1.88548   0.00060   0.00177   0.00118   0.00295   1.88844
    D1        1.04720   0.00000   0.00000   0.00000   0.00000   1.04720
    D2       -1.04720   0.00000   0.00000   0.00000   0.00000  -1.04720
    D3        3.14159   0.00000   0.00000   0.00000   0.00000   3.14159
    D4       -1.04720   0.00000   0.00000   0.00000   0.00000  -1.04720
    D5        3.14159   0.00000   0.00000   0.00000   0.00000   3.14159
    D6        1.04720   0.00000   0.00000   0.00000   0.00000   1.04720
    D7        3.14159   0.00000   0.00000   0.00000   0.00000   3.14159
    D8        1.04720   0.00000   0.00000   0.00000   0.00000   1.04720
    D9       -1.04720   0.00000   0.00000   0.00000   0.00000  -1.04720
         Item               Value     Threshold  Converged?
 Maximum Force            0.001876     0.000450     NO 
 RMS     Force            0.000522     0.000300     NO 
 Maximum Displacement     0.008001     0.001800     NO 
 RMS     Displacement     0.003859     0.001200     NO 
 Predicted change in Energy=-1.443421D-05
 GradGradGradGradGradGradGradGradGradGradGradGradGradGradGradGradGradGrad

                          Input orientation:                          
 ---------------------------------------------------------------------
 Center     Atomic      Atomic             Coordinates (Angstroms)
 Number     Number       Type             X           Y           Z
 ---------------------------------------------------------------------
      1          6           0       -6.394736    0.651374   -0.000001
      2          6           0       -4.845974    0.571256    0.000001
      3          1           0       -6.764151    1.006206    0.967592
      4          1           0       -6.833421   -0.332873   -0.193442
      5          1           0       -6.746840    1.340808   -0.774152
      6          1           0       -4.493870   -0.118178    0.774152
      7          1           0       -4.407289    1.555503    0.193442
      8          1           0       -4.476559    0.216424   -0.967592
 ---------------------------------------------------------------------
                    Distance matrix (angstroms):
                    1          2          3          4          5
     1  C    0.000000
     2  C    1.550833   0.000000
     3  H    1.094809   2.191989   0.000000
     4  H    1.094809   2.191989   1.773677   0.000000
     5  H    1.094809   2.191989   1.773677   1.773677   0.000000
     6  H    2.191989   1.094809   2.540834   2.540834   3.098672
     7  H    2.191989   1.094809   2.540834   3.098672   2.540834
     8  H    2.191989   1.094809   3.098672   2.540834   2.540834
                    6          7          8
     6  H    0.000000
     7  H    1.773677   0.000000
     8  H    1.773677   1.773677   0.000000
 This structure is nearly, but not quite of a higher symmetry.
 Consider Symm=Loose if the higher symmetry is desired.
 Stoichiometry    C2H6
 Framework group  CI[X(C2H6)]
 Deg. of freedom     9
 Full point group                 CI      NOp   2
 Largest Abelian subgroup         CI      NOp   2
 Largest concise Abelian subgroup CI      NOp   2
                         Standard orientation:                         
 ---------------------------------------------------------------------
 Center     Atomic      Atomic             Coordinates (Angstroms)
 Number     Number       Type             X           Y           Z
 ---------------------------------------------------------------------
      1          6           0       -0.774381    0.040059   -0.000001
      2          6           0        0.774381   -0.040059    0.000001
      3          1           0       -1.143796    0.394891    0.967592
      4          1           0       -1.213066   -0.944188   -0.193442
      5          1           0       -1.126485    0.729493   -0.774152
      6          1           0        1.126485   -0.729493    0.774152
      7          1           0        1.213066    0.944188    0.193442
      8          1           0        1.143796   -0.394891   -0.967592
 ---------------------------------------------------------------------
 Rotational constants (GHZ):     79.6989861     19.6070994     19.6070992
 Standard basis: 3-21G (6D, 7F)
 There are    15 symmetry adapted cartesian basis functions of AG  symmetry.
 There are    15 symmetry adapted cartesian basis functions of AU  symmetry.
 There are    15 symmetry adapted basis functions of AG  symmetry.
 There are    15 symmetry adapted basis functions of AU  symmetry.
    30 basis functions,    48 primitive gaussians,    30 cartesian basis functions
     9 alpha electrons        9 beta electrons
       nuclear repulsion energy        41.9275495569 Hartrees.
 NAtoms=    8 NActive=    8 NUniq=    4 SFac= 4.00D+00 NAtFMM=   60 NAOKFM=F Big=F
 Integral buffers will be    131072 words long.
 Raffenetti 1 integral format.
 Two-electron integral symmetry is turned on.
 One-electron integrals computed using PRISM.
 NBasis=    30 RedAO= T EigKep=  1.38D-02  NBF=    15    15
 NBsUse=    30 1.00D-06 EigRej= -1.00D+00 NBFU=    15    15
 Initial guess from the checkpoint file:  "/scr/Gau-23431.chk"
 B after Tr=     0.000000    0.000000    0.000000
         Rot=    1.000000    0.000000    0.000000    0.000000 Ang=   0.00 deg.
 Initial guess orbital symmetries:
       Occupied  (AU) (AG) (AG) (AU) (AU) (AU) (AG) (AG) (AG)
       Virtual   (AG) (AG) (AG) (AG) (AG) (AG) (AG) (AG) (AG) (AG)
                 (AU) (AU) (AU) (AU) (AU) (AU) (AU) (AU) (AU) (AU)
                 (AU)
 Keep R1 ints in memory in symmetry-blocked form, NReq=940952.
 Requested convergence on RMS density matrix=1.00D-08 within 128 cycles.
 Requested convergence on MAX density matrix=1.00D-06.
 Requested convergence on             energy=1.00D-06.
 No special actions if energy rises.
 SCF Done:  E(RHF) =  -78.7934442704     A.U. after    7 cycles
            NFock=  7  Conv=0.13D-08     -V/T= 2.0032
 ExpMin= 1.83D-01 ExpMax= 1.72D+02 ExpMxC= 1.72D+02 IAcc=3 IRadAn=         5 AccDes= 0.00D+00
 HarFok:  IExCor=  205 AccDes= 0.00D+00 IRadAn=         5 IDoV=-2 UseB2=F ITyADJ=14
 ICtDFT= 12500011 ScaDFX=  1.000000  1.000000  1.000000  1.000000
 Range of M.O.s used for correlation:     3    30
 NBasis=    30 NAE=     9 NBE=     9 NFC=     2 NFV=     0
 NROrb=     28 NOA=     7 NOB=     7 NVA=    21 NVB=    21
 Fully direct method using O(ONN) memory.
 JobTyp=1 Pass  1:  I=   3 to   9 NPSUse=  3 ParTrn=F ParDer=T DoDerP=T.
 Spin components of T(2) and E(2):
     alpha-alpha T2 =       0.6368193507D-02 E2=     -0.1747679972D-01
     alpha-beta  T2 =       0.5578282321D-01 E2=     -0.1536569136D+00
     beta-beta   T2 =       0.6368193507D-02 E2=     -0.1747679972D-01
 ANorm=    0.1033692029D+01
 E2 =    -0.1886105131D+00 EUMP2 =    -0.78982054783522D+02
          IDoAtm=11111111
          Differentiating once with respect to electric field.
                with respect to dipole field.
          Differentiating once with respect to nuclear coordinates.
 Keep R1 ints in memory in symmetry-blocked form, NReq=923085.
          There are     1 degrees of freedom in the 1st order CPHF.  IDoFFX=0 NUNeed=     1.
 LinEq1:  Iter=  0 NonCon=     1 RMS=3.96D-03 Max=2.13D-02 NDo=     1
 AX will form     1 AO Fock derivatives at one time.
 LinEq1:  Iter=  1 NonCon=     1 RMS=1.64D-03 Max=8.43D-03 NDo=     1
 LinEq1:  Iter=  2 NonCon=     1 RMS=1.13D-04 Max=6.60D-04 NDo=     1
 LinEq1:  Iter=  3 NonCon=     1 RMS=7.55D-06 Max=4.11D-05 NDo=     1
 LinEq1:  Iter=  4 NonCon=     1 RMS=4.87D-07 Max=2.32D-06 NDo=     1
 LinEq1:  Iter=  5 NonCon=     1 RMS=2.50D-08 Max=1.28D-07 NDo=     1
 LinEq1:  Iter=  6 NonCon=     1 RMS=1.91D-09 Max=1.56D-08 NDo=     1
 LinEq1:  Iter=  7 NonCon=     1 RMS=1.76D-10 Max=1.28D-09 NDo=     1
 LinEq1:  Iter=  8 NonCon=     0 RMS=1.58D-11 Max=7.11D-11 NDo=     1
 Linear equations converged to 1.000D-10 1.000D-09 after     8 iterations.
 End of Minotr F.D. properties file   721 does not exist.
 End of Minotr F.D. properties file   722 does not exist.
 End of Minotr F.D. properties file   788 does not exist.
 Calling FoFJK, ICntrl=  10002127 FMM=F ISym2X=1 I1Cent= 0 IOpClX= 0 NMat=1 NMatS=1 NMatT=0.
 ***** Axes restored to original set *****
 -------------------------------------------------------------------
 Center     Atomic                   Forces (Hartrees/Bohr)
 Number     Number              X              Y              Z
 -------------------------------------------------------------------
      1        6          -0.000268133    0.000013891    0.000000007
      2        6           0.000268133   -0.000013891   -0.000000007
      3        1           0.000042631   -0.000017728   -0.000044752
      4        1           0.000045823    0.000044180    0.000008936
      5        1           0.000041804   -0.000033198    0.000035791
      6        1          -0.000041804    0.000033198   -0.000035791
      7        1          -0.000045823   -0.000044180   -0.000008936
      8        1          -0.000042631    0.000017728    0.000044752
 -------------------------------------------------------------------
 Cartesian Forces:  Max     0.000268133 RMS     0.000083907

 GradGradGradGradGradGradGradGradGradGradGradGradGradGradGradGradGradGrad
 Berny optimization.
 Using GEDIIS/GDIIS optimizer.
 FormGI is forming the generalized inverse of G from B-inverse, IUseBI=4.
 Internal  Forces:  Max     0.000138060 RMS     0.000041164
 Search for a local minimum.
 Step number   3 out of a maximum of   38
 All quantities printed in internal units (Hartrees-Bohrs-Radians)
 Mixed Optimization -- En-DIIS/RFO-DIIS
 Swapping is turned off.
 Update second derivatives using D2CorX and points    1    2    3
 DE= -1.49D-05 DEPred=-1.44D-05 R= 1.03D+00
 TightC=F SS=  1.41D+00  RLast= 1.12D-02 DXNew= 5.0454D-01 3.3536D-02
 Trust test= 1.03D+00 RLast= 1.12D-02 DXMaxT set to 3.00D-01
 ITU=  1  1  0
     Eigenvalues ---    0.00280   0.05518   0.05518   0.05518   0.05518
     Eigenvalues ---    0.16000   0.16000   0.16000   0.16000   0.16000
     Eigenvalues ---    0.16713   0.32526   0.34549   0.34549   0.34549
     Eigenvalues ---    0.34550   0.34550   0.35515
 En-DIIS/RFO-DIIS IScMMF=        0 using points:     3    2
 RFO step:  Lambda=-8.95310059D-08.
 DidBck=F Rises=F RFO-DIIS coefs:    1.00479   -0.00479
 Iteration  1 RMS(Cart)=  0.00009403 RMS(Int)=  0.00000002
 Iteration  2 RMS(Cart)=  0.00000001 RMS(Int)=  0.00000002
 ClnCor:  largest displacement from symmetrization is 1.15D-10 for atom     8.
 Variable       Old X    -DE/DX   Delta X   Delta X   Delta X     New X
                                 (Linear)    (Quad)   (Total)
    R1        2.93065   0.00014  -0.00002   0.00049   0.00047   2.93112
    R2        2.06889  -0.00006   0.00000  -0.00017  -0.00017   2.06872
    R3        2.06889  -0.00006   0.00000  -0.00017  -0.00017   2.06872
    R4        2.06889  -0.00006   0.00000  -0.00017  -0.00017   2.06872
    R5        2.06889  -0.00006   0.00000  -0.00017  -0.00017   2.06872
    R6        2.06889  -0.00006   0.00000  -0.00017  -0.00017   2.06872
    R7        2.06889  -0.00006   0.00000  -0.00017  -0.00017   2.06872
    A1        1.93234  -0.00002  -0.00001  -0.00015  -0.00017   1.93217
    A2        1.93234  -0.00002  -0.00001  -0.00015  -0.00017   1.93217
    A3        1.93234  -0.00002  -0.00001  -0.00015  -0.00017   1.93217
    A4        1.88844   0.00002   0.00001   0.00016   0.00017   1.88861
    A5        1.88844   0.00002   0.00001   0.00016   0.00017   1.88861
    A6        1.88844   0.00002   0.00001   0.00016   0.00017   1.88861
    A7        1.93234  -0.00002  -0.00001  -0.00015  -0.00017   1.93217
    A8        1.93234  -0.00002  -0.00001  -0.00015  -0.00017   1.93217
    A9        1.93234  -0.00002  -0.00001  -0.00015  -0.00017   1.93217
   A10        1.88844   0.00002   0.00001   0.00016   0.00017   1.88861
   A11        1.88844   0.00002   0.00001   0.00016   0.00017   1.88861
   A12        1.88844   0.00002   0.00001   0.00016   0.00017   1.88861
    D1        1.04720   0.00000   0.00000   0.00000   0.00000   1.04720
    D2       -1.04720   0.00000   0.00000   0.00000   0.00000  -1.04720
    D3        3.14159   0.00000   0.00000   0.00000   0.00000   3.14159
    D4       -1.04720   0.00000   0.00000   0.00000   0.00000  -1.04720
    D5        3.14159   0.00000   0.00000   0.00000   0.00000  -3.14159
    D6        1.04720   0.00000   0.00000   0.00000   0.00000   1.04720
    D7        3.14159   0.00000   0.00000   0.00000   0.00000   3.14159
    D8        1.04720   0.00000   0.00000   0.00000   0.00000   1.04720
    D9       -1.04720   0.00000   0.00000   0.00000   0.00000  -1.04720
         Item               Value     Threshold  Converged?
 Maximum Force            0.000138     0.000450     YES
 RMS     Force            0.000041     0.000300     YES
 Maximum Displacement     0.000233     0.001800     YES
 RMS     Displacement     0.000094     0.001200     YES
 Predicted change in Energy=-8.724482D-08
 Optimization completed.
    -- Stationary point found.
                           ----------------------------
                           !   Optimized Parameters   !
                           ! (Angstroms and Degrees)  !
 --------------------------                            --------------------------
 ! Name  Definition              Value          Derivative Info.                !
 --------------------------------------------------------------------------------
 ! R1    R(1,2)                  1.5508         -DE/DX =    0.0001              !
 ! R2    R(1,3)                  1.0948         -DE/DX =   -0.0001              !
 ! R3    R(1,4)                  1.0948         -DE/DX =   -0.0001              !
 ! R4    R(1,5)                  1.0948         -DE/DX =   -0.0001              !
 ! R5    R(2,6)                  1.0948         -DE/DX =   -0.0001              !
 ! R6    R(2,7)                  1.0948         -DE/DX =   -0.0001              !
 ! R7    R(2,8)                  1.0948         -DE/DX =   -0.0001              !
 ! A1    A(2,1,3)              110.7148         -DE/DX =    0.0                 !
 ! A2    A(2,1,4)              110.7148         -DE/DX =    0.0                 !
 ! A3    A(2,1,5)              110.7148         -DE/DX =    0.0                 !
 ! A4    A(3,1,4)              108.1995         -DE/DX =    0.0                 !
 ! A5    A(3,1,5)              108.1995         -DE/DX =    0.0                 !
 ! A6    A(4,1,5)              108.1995         -DE/DX =    0.0                 !
 ! A7    A(1,2,6)              110.7148         -DE/DX =    0.0                 !
 ! A8    A(1,2,7)              110.7148         -DE/DX =    0.0                 !
 ! A9    A(1,2,8)              110.7148         -DE/DX =    0.0                 !
 ! A10   A(6,2,7)              108.1995         -DE/DX =    0.0                 !
 ! A11   A(6,2,8)              108.1995         -DE/DX =    0.0                 !
 ! A12   A(7,2,8)              108.1995         -DE/DX =    0.0                 !
 ! D1    D(3,1,2,6)             60.0            -DE/DX =    0.0                 !
 ! D2    D(3,1,2,7)            -60.0            -DE/DX =    0.0                 !
 ! D3    D(3,1,2,8)            180.0            -DE/DX =    0.0                 !
 ! D4    D(4,1,2,6)            -60.0            -DE/DX =    0.0                 !
 ! D5    D(4,1,2,7)           -180.0            -DE/DX =    0.0                 !
 ! D6    D(4,1,2,8)             60.0            -DE/DX =    0.0                 !
 ! D7    D(5,1,2,6)            180.0            -DE/DX =    0.0                 !
 ! D8    D(5,1,2,7)             60.0            -DE/DX =    0.0                 !
 ! D9    D(5,1,2,8)            -60.0            -DE/DX =    0.0                 !
 --------------------------------------------------------------------------------
 GradGradGradGradGradGradGradGradGradGradGradGradGradGradGradGradGradGrad

                          Input orientation:                          
 ---------------------------------------------------------------------
 Center     Atomic      Atomic             Coordinates (Angstroms)
 Number     Number       Type             X           Y           Z
 ---------------------------------------------------------------------
      1          6           0       -6.394736    0.651374   -0.000001
      2          6           0       -4.845974    0.571256    0.000001
      3          1           0       -6.764151    1.006206    0.967592
      4          1           0       -6.833421   -0.332873   -0.193442
      5          1           0       -6.746840    1.340808   -0.774152
      6          1           0       -4.493870   -0.118178    0.774152
      7          1           0       -4.407289    1.555503    0.193442
      8          1           0       -4.476559    0.216424   -0.967592
 ---------------------------------------------------------------------
                    Distance matrix (angstroms):
                    1          2          3          4          5
     1  C    0.000000
     2  C    1.550833   0.000000
     3  H    1.094809   2.191989   0.000000
     4  H    1.094809   2.191989   1.773677   0.000000
     5  H    1.094809   2.191989   1.773677   1.773677   0.000000
     6  H    2.191989   1.094809   2.540834   2.540834   3.098672
     7  H    2.191989   1.094809   2.540834   3.098672   2.540834
     8  H    2.191989   1.094809   3.098672   2.540834   2.540834
                    6          7          8
     6  H    0.000000
     7  H    1.773677   0.000000
     8  H    1.773677   1.773677   0.000000
 This structure is nearly, but not quite of a higher symmetry.
 Consider Symm=Loose if the higher symmetry is desired.
 Stoichiometry    C2H6
 Framework group  CI[X(C2H6)]
 Deg. of freedom     9
 Full point group                 CI      NOp   2
 Largest Abelian subgroup         CI      NOp   2
 Largest concise Abelian subgroup CI      NOp   2
                         Standard orientation:                         
 ---------------------------------------------------------------------
 Center     Atomic      Atomic             Coordinates (Angstroms)
 Number     Number       Type             X           Y           Z
 ---------------------------------------------------------------------
      1          6           0       -0.774381    0.040059   -0.000001
      2          6           0        0.774381   -0.040059    0.000001
      3          1           0       -1.143796    0.394891    0.967592
      4          1           0       -1.213066   -0.944188   -0.193442
      5          1           0       -1.126485    0.729493   -0.774152
      6          1           0        1.126485   -0.729493    0.774152
      7          1           0        1.213066    0.944188    0.193442
      8          1           0        1.143796   -0.394891   -0.967592
 ---------------------------------------------------------------------
 Rotational constants (GHZ):     79.6989861     19.6070994     19.6070992

 **********************************************************************

            Population analysis using the SCF density.

 **********************************************************************

 Orbital symmetries:
       Occupied  (AU) (AG) (AG) (AU) (AU) (AU) (AG) (AG) (AG)
       Virtual   (AG) (AU) (AU) (AU) (AG) (AG) (AU) (AU) (AU) (AG)
                 (AU) (AG) (AG) (AG) (AG) (AG) (AU) (AU) (AU) (AG)
                 (AU)
 The electronic state is 1-AG.
 Alpha  occ. eigenvalues --  -11.15692 -11.15671  -1.01439  -0.84226  -0.59587
 Alpha  occ. eigenvalues --   -0.59587  -0.50038  -0.48498  -0.48498
 Alpha virt. eigenvalues --    0.27699   0.33645   0.33646   0.33916   0.36819
 Alpha virt. eigenvalues --    0.36819   0.42049   0.90925   0.90925   0.98038
 Alpha virt. eigenvalues --    1.06591   1.09251   1.09251   1.27720   1.35806
 Alpha virt. eigenvalues --    1.35806   1.36366   1.36366   1.43721   1.93466
 Alpha virt. eigenvalues --    2.29132
          Condensed to atoms (all electrons):
               1          2          3          4          5          6
     1  C    5.343202   0.245044   0.377178   0.377178   0.377178  -0.041671
     2  C    0.245044   5.343202  -0.041671  -0.041671  -0.041671   0.377178
     3  H    0.377178  -0.041671   0.520214  -0.026686  -0.026686  -0.001677
     4  H    0.377178  -0.041671  -0.026686   0.520214  -0.026686  -0.001677
     5  H    0.377178  -0.041671  -0.026686  -0.026686   0.520214   0.002750
     6  H   -0.041671   0.377178  -0.001677  -0.001677   0.002750   0.520214
     7  H   -0.041671   0.377178  -0.001677   0.002750  -0.001677  -0.026686
     8  H   -0.041671   0.377178   0.002750  -0.001677  -0.001677  -0.026686
               7          8
     1  C   -0.041671  -0.041671
     2  C    0.377178   0.377178
     3  H   -0.001677   0.002750
     4  H    0.002750  -0.001677
     5  H   -0.001677  -0.001677
     6  H   -0.026686  -0.026686
     7  H    0.520214  -0.026686
     8  H   -0.026686   0.520214
 Mulliken charges:
               1
     1  C   -0.594765
     2  C   -0.594765
     3  H    0.198255
     4  H    0.198255
     5  H    0.198255
     6  H    0.198255
     7  H    0.198255
     8  H    0.198255
 Sum of Mulliken charges =   0.00000
 Mulliken charges with hydrogens summed into heavy atoms:
               1
     1  C    0.000000
     2  C    0.000000
 Electronic spatial extent (au):  <R**2>=            111.1931
 Charge=              0.0000 electrons
 Dipole moment (field-independent basis, Debye):
    X=              0.0000    Y=              0.0000    Z=              0.0000  Tot=              0.0000
 Quadrupole moment (field-independent basis, Debye-Ang):
   XX=            -15.5684   YY=            -15.0781   ZZ=            -15.0768
   XY=              0.0254   XZ=              0.0000   YZ=              0.0000
 Traceless Quadrupole moment (field-independent basis, Debye-Ang):
   XX=             -0.3273   YY=              0.1630   ZZ=              0.1643
   XY=              0.0254   XZ=              0.0000   YZ=              0.0000
 Octapole moment (field-independent basis, Debye-Ang**2):
  XXX=              0.0000  YYY=              0.0000  ZZZ=              0.0000  XYY=              0.0000
  XXY=              0.0000  XXZ=              0.0000  XZZ=              0.0000  YZZ=              0.0000
  YYZ=              0.0000  XYZ=              0.0000
 Hexadecapole moment (field-independent basis, Debye-Ang**3):
 XXXX=            -94.2529 YYYY=            -28.6318 ZZZZ=            -28.2197 XXXY=              1.9146
 XXXZ=              0.0063 YYYX=              2.7381 YYYZ=             -0.1231 ZZZX=             -0.7955
 ZZZY=              0.0411 XXYY=            -19.0636 XXZZ=            -19.2728 YYZZ=             -9.3044
 XXYZ=              0.0820 YYXZ=              0.7891 ZZXY=             -0.7320
 N-N= 4.192754955685D+01 E-N=-2.663157268443D+02  KE= 7.853851553754D+01
 Symmetry AG   KE= 4.072017594323D+01
 Symmetry AU   KE= 3.781833959431D+01
 1\1\GINC-N0288\FOpt\RMP2-FC\3-21G\C2H6\GDAVIDS3\21-Feb-2017\0\\#n MP2/
 3-21G Opt\\Ethane MP2 3-21G\\0,1\C,-6.3947362189,0.6513741926,-0.00000
 05968\C,-4.8459737811,0.5712558074,0.0000005968\H,-6.7641509397,1.0062
 057046,0.9675918595\H,-6.8334213751,-0.332873444,-0.1934421662\H,-6.74
 68402393,1.3408084038,-0.7741523594\H,-4.4938697607,-0.1181784038,0.77
 41523594\H,-4.4072886249,1.555503444,0.1934421662\H,-4.4765590603,0.21
 64242954,-0.9675918595\\Version=ES64L-G09RevE.01\State=1-AG\HF=-78.793
 4443\MP2=-78.9820548\RMSD=1.277e-09\RMSF=8.391e-05\Dipole=0.,0.,0.\PG=
 CI [X(C2H6)]\\@


 ONE THORN OF EXPERIENCE IS WORTH A WHOLE WILDERNESS OF
 WARNING....  LOWELL - AMONG MY BOOKS
 Job cpu time:       0 days  0 hours  0 minutes 24.1 seconds.
 File lengths (MBytes):  RWF=      5 Int=      0 D2E=      0 Chk=      1 Scr=      1
 Normal termination of Gaussian 09 at Tue Feb 21 17:44:22 2017.
