 Entering Gaussian System, Link 0=g09
 Input=Ethane_MP2_STO-3G.com
 Output=Ethane_MP2_STO-3G.log
 Initial command:
 /sw/contrib/gaussian/g09/E01/g09/l1.exe "/scr/Gau-19685.inp" -scrdir="/scr/"
 Entering Link 1 = /sw/contrib/gaussian/g09/E01/g09/l1.exe PID=     19686.
  
 Copyright (c) 1988,1990,1992,1993,1995,1998,2003,2009,2015,
            Gaussian, Inc.  All Rights Reserved.
  
 This is part of the Gaussian(R) 09 program.  It is based on
 the Gaussian(R) 03 system (copyright 2003, Gaussian, Inc.),
 the Gaussian(R) 98 system (copyright 1998, Gaussian, Inc.),
 the Gaussian(R) 94 system (copyright 1995, Gaussian, Inc.),
 the Gaussian 92(TM) system (copyright 1992, Gaussian, Inc.),
 the Gaussian 90(TM) system (copyright 1990, Gaussian, Inc.),
 the Gaussian 88(TM) system (copyright 1988, Gaussian, Inc.),
 the Gaussian 86(TM) system (copyright 1986, Carnegie Mellon
 University), and the Gaussian 82(TM) system (copyright 1983,
 Carnegie Mellon University). Gaussian is a federally registered
 trademark of Gaussian, Inc.
  
 This software contains proprietary and confidential information,
 including trade secrets, belonging to Gaussian, Inc.
  
 This software is provided under written license and may be
 used, copied, transmitted, or stored only in accord with that
 written license.
  
 The following legend is applicable only to US Government
 contracts under FAR:
  
                    RESTRICTED RIGHTS LEGEND
  
 Use, reproduction and disclosure by the US Government is
 subject to restrictions as set forth in subparagraphs (a)
 and (c) of the Commercial Computer Software - Restricted
 Rights clause in FAR 52.227-19.
  
 Gaussian, Inc.
 340 Quinnipiac St., Bldg. 40, Wallingford CT 06492
  
  
 ---------------------------------------------------------------
 Warning -- This program may not be used in any manner that
 competes with the business of Gaussian, Inc. or will provide
 assistance to any competitor of Gaussian, Inc.  The licensee
 of this program is prohibited from giving any competitor of
 Gaussian, Inc. access to this program.  By using this program,
 the user acknowledges that Gaussian, Inc. is engaged in the
 business of creating and licensing software in the field of
 computational chemistry and represents and warrants to the
 licensee that it is not a competitor of Gaussian, Inc. and that
 it will not use this program in any manner prohibited above.
 ---------------------------------------------------------------
  

 Cite this work as:
 Gaussian 09, Revision E.01,
 M. J. Frisch, G. W. Trucks, H. B. Schlegel, G. E. Scuseria, 
 M. A. Robb, J. R. Cheeseman, G. Scalmani, V. Barone, B. Mennucci, 
 G. A. Petersson, H. Nakatsuji, M. Caricato, X. Li, H. P. Hratchian, 
 A. F. Izmaylov, J. Bloino, G. Zheng, J. L. Sonnenberg, M. Hada, 
 M. Ehara, K. Toyota, R. Fukuda, J. Hasegawa, M. Ishida, T. Nakajima, 
 Y. Honda, O. Kitao, H. Nakai, T. Vreven, J. A. Montgomery, Jr., 
 J. E. Peralta, F. Ogliaro, M. Bearpark, J. J. Heyd, E. Brothers, 
 K. N. Kudin, V. N. Staroverov, T. Keith, R. Kobayashi, J. Normand, 
 K. Raghavachari, A. Rendell, J. C. Burant, S. S. Iyengar, J. Tomasi, 
 M. Cossi, N. Rega, J. M. Millam, M. Klene, J. E. Knox, J. B. Cross, 
 V. Bakken, C. Adamo, J. Jaramillo, R. Gomperts, R. E. Stratmann, 
 O. Yazyev, A. J. Austin, R. Cammi, C. Pomelli, J. W. Ochterski, 
 R. L. Martin, K. Morokuma, V. G. Zakrzewski, G. A. Voth, 
 P. Salvador, J. J. Dannenberg, S. Dapprich, A. D. Daniels, 
 O. Farkas, J. B. Foresman, J. V. Ortiz, J. Cioslowski, 
 and D. J. Fox, Gaussian, Inc., Wallingford CT, 2013.
 
 ******************************************
 Gaussian 09:  ES64L-G09RevE.01 30-Nov-2015
                21-Feb-2017 
 ******************************************
 %NProcShared=8
 Will use up to    8 processors via shared memory.
 -----------------
 #n MP2/STO-3G Opt
 -----------------
 1/18=20,19=15,38=1/1,3;
 2/9=110,12=2,17=6,18=5,40=1/2;
 3/6=3,11=9,16=1,25=1,30=1,71=1/1,2,3;
 4//1;
 5/5=2,38=5/2;
 8/6=4,10=1/1;
 9/15=2,16=-3/6;
 10/5=1/2;
 6/7=2,8=2,9=2,10=2/1;
 7/12=2/1,2,3,16;
 1/18=20,19=15/3(2);
 2/9=110/2;
 99//99;
 2/9=110/2;
 3/6=3,11=9,16=1,25=1,30=1,71=1/1,2,3;
 4/5=5,16=3,69=1/1;
 5/5=2,38=5/2;
 8/6=4,10=1/1;
 9/15=2,16=-3/6;
 10/5=1/2;
 7/12=2/1,2,3,16;
 1/18=20,19=15/3(-8);
 2/9=110/2;
 6/7=2,8=2,9=2,10=2/1;
 99//99;
 -----------------
 Ethane MP2 STO-3G
 -----------------
 Symbolic Z-matrix:
 Charge =  0 Multiplicity = 1
 C                    -6.3877    0.65101   0. 
 C                    -4.85301   0.57162   0. 
 H                    -6.75069   1.00542   0.96733 
 H                    -6.81994  -0.3333   -0.19339 
 H                    -6.73338   1.33993  -0.77394 
 H                    -4.50733  -0.1173    0.77394 
 H                    -4.42077   1.55593   0.19339 
 H                    -4.49002   0.21721  -0.96733 
 

 GradGradGradGradGradGradGradGradGradGradGradGradGradGradGradGradGradGrad
 Berny optimization.
 Initialization pass.
                           ----------------------------
                           !    Initial Parameters    !
                           ! (Angstroms and Degrees)  !
 --------------------------                            --------------------------
 ! Name  Definition              Value          Derivative Info.                !
 --------------------------------------------------------------------------------
 ! R1    R(1,2)                  1.5367         estimate D2E/DX2                !
 ! R2    R(1,3)                  1.0923         estimate D2E/DX2                !
 ! R3    R(1,4)                  1.0923         estimate D2E/DX2                !
 ! R4    R(1,5)                  1.0923         estimate D2E/DX2                !
 ! R5    R(2,6)                  1.0923         estimate D2E/DX2                !
 ! R6    R(2,7)                  1.0923         estimate D2E/DX2                !
 ! R7    R(2,8)                  1.0923         estimate D2E/DX2                !
 ! A1    A(2,1,3)              110.4041         estimate D2E/DX2                !
 ! A2    A(2,1,4)              110.4039         estimate D2E/DX2                !
 ! A3    A(2,1,5)              110.4038         estimate D2E/DX2                !
 ! A4    A(3,1,4)              108.5227         estimate D2E/DX2                !
 ! A5    A(3,1,5)              108.5224         estimate D2E/DX2                !
 ! A6    A(4,1,5)              108.5227         estimate D2E/DX2                !
 ! A7    A(1,2,6)              110.4038         estimate D2E/DX2                !
 ! A8    A(1,2,7)              110.4039         estimate D2E/DX2                !
 ! A9    A(1,2,8)              110.4041         estimate D2E/DX2                !
 ! A10   A(6,2,7)              108.5227         estimate D2E/DX2                !
 ! A11   A(6,2,8)              108.5224         estimate D2E/DX2                !
 ! A12   A(7,2,8)              108.5227         estimate D2E/DX2                !
 ! D1    D(3,1,2,6)             60.0002         estimate D2E/DX2                !
 ! D2    D(3,1,2,7)            -59.9998         estimate D2E/DX2                !
 ! D3    D(3,1,2,8)            180.0            estimate D2E/DX2                !
 ! D4    D(4,1,2,6)            -60.0            estimate D2E/DX2                !
 ! D5    D(4,1,2,7)            180.0            estimate D2E/DX2                !
 ! D6    D(4,1,2,8)             59.9998         estimate D2E/DX2                !
 ! D7    D(5,1,2,6)            180.0            estimate D2E/DX2                !
 ! D8    D(5,1,2,7)             60.0            estimate D2E/DX2                !
 ! D9    D(5,1,2,8)            -60.0002         estimate D2E/DX2                !
 --------------------------------------------------------------------------------
 Trust Radius=3.00D-01 FncErr=1.00D-07 GrdErr=1.00D-07
 Number of steps in this run=     38 maximum allowed number of steps=    100.
 GradGradGradGradGradGradGradGradGradGradGradGradGradGradGradGradGradGrad

                          Input orientation:                          
 ---------------------------------------------------------------------
 Center     Atomic      Atomic             Coordinates (Angstroms)
 Number     Number       Type             X           Y           Z
 ---------------------------------------------------------------------
      1          6           0       -6.387700    0.651010    0.000000
      2          6           0       -4.853010    0.571620    0.000000
      3          1           0       -6.750690    1.005420    0.967330
      4          1           0       -6.819940   -0.333300   -0.193390
      5          1           0       -6.733380    1.339930   -0.773940
      6          1           0       -4.507330   -0.117300    0.773940
      7          1           0       -4.420770    1.555930    0.193390
      8          1           0       -4.490020    0.217210   -0.967330
 ---------------------------------------------------------------------
                    Distance matrix (angstroms):
                    1          2          3          4          5
     1  C    0.000000
     2  C    1.536742   0.000000
     3  H    1.092289   2.173729   0.000000
     4  H    1.092290   2.173728   1.773200   0.000000
     5  H    1.092286   2.173724   1.773194   1.773198   0.000000
     6  H    2.173724   1.092286   2.516061   2.516058   3.078108
     7  H    2.173728   1.092290   2.516063   3.078117   2.516058
     8  H    2.173729   1.092289   3.078118   2.516063   2.516061
                    6          7          8
     6  H    0.000000
     7  H    1.773198   0.000000
     8  H    1.773194   1.773200   0.000000
 This structure is nearly, but not quite of a higher symmetry.
 Consider Symm=Loose if the higher symmetry is desired.
 Stoichiometry    C2H6
 Framework group  CI[X(C2H6)]
 Deg. of freedom     9
 Full point group                 CI      NOp   2
 Largest Abelian subgroup         CI      NOp   2
 Largest concise Abelian subgroup CI      NOp   2
                         Standard orientation:                         
 ---------------------------------------------------------------------
 Center     Atomic      Atomic             Coordinates (Angstroms)
 Number     Number       Type             X           Y           Z
 ---------------------------------------------------------------------
      1          6           0       -0.767345    0.039695    0.000000
      2          6           0        0.767345   -0.039695    0.000000
      3          1           0       -1.130335    0.394105    0.967330
      4          1           0       -1.199585   -0.944615   -0.193390
      5          1           0       -1.113025    0.728615   -0.773940
      6          1           0        1.113025   -0.728615    0.773940
      7          1           0        1.199585    0.944615    0.193390
      8          1           0        1.130335   -0.394105   -0.967330
 ---------------------------------------------------------------------
 Rotational constants (GHZ):     79.7421566     19.9565168     19.9564985
 Standard basis: STO-3G (5D, 7F)
 There are     8 symmetry adapted cartesian basis functions of AG  symmetry.
 There are     8 symmetry adapted cartesian basis functions of AU  symmetry.
 There are     8 symmetry adapted basis functions of AG  symmetry.
 There are     8 symmetry adapted basis functions of AU  symmetry.
    16 basis functions,    48 primitive gaussians,    16 cartesian basis functions
     9 alpha electrons        9 beta electrons
       nuclear repulsion energy        42.1695770054 Hartrees.
 NAtoms=    8 NActive=    8 NUniq=    4 SFac= 4.00D+00 NAtFMM=   60 NAOKFM=F Big=F
 Integral buffers will be    131072 words long.
 Raffenetti 1 integral format.
 Two-electron integral symmetry is turned on.
 One-electron integrals computed using PRISM.
 NBasis=    16 RedAO= T EigKep=  1.47D-01  NBF=     8     8
 NBsUse=    16 1.00D-06 EigRej= -1.00D+00 NBFU=     8     8
 ExpMin= 1.69D-01 ExpMax= 7.16D+01 ExpMxC= 7.16D+01 IAcc=1 IRadAn=         1 AccDes= 0.00D+00
 Harris functional with IExCor=  205 and IRadAn=       1 diagonalized for initial guess.
 HarFok:  IExCor=  205 AccDes= 0.00D+00 IRadAn=         1 IDoV= 1 UseB2=F ITyADJ=14
 ICtDFT=  3500011 ScaDFX=  1.000000  1.000000  1.000000  1.000000
 FoFCou: FMM=F IPFlag=           0 FMFlag=      100000 FMFlg1=           0
         NFxFlg=           0 DoJE=T BraDBF=F KetDBF=T FulRan=T
         wScrn=  0.000000 ICntrl=     500 IOpCl=  0 I1Cent=   200000004 NGrid=           0
         NMat0=    1 NMatS0=      1 NMatT0=    0 NMatD0=    1 NMtDS0=    0 NMtDT0=    0
 Petite list used in FoFCou.
 Initial guess orbital symmetries:
       Occupied  (AU) (AG) (AG) (AU) (AU) (AU) (AG) (AG) (AG)
       Virtual   (AU) (AU) (AU) (AG) (AG) (AG) (AU)
 The electronic state of the initial guess is 1-AG.
 Keep R1 ints in memory in symmetry-blocked form, NReq=838434.
 Requested convergence on RMS density matrix=1.00D-08 within 128 cycles.
 Requested convergence on MAX density matrix=1.00D-06.
 Requested convergence on             energy=1.00D-06.
 No special actions if energy rises.
 SCF Done:  E(RHF) =  -78.3059325475     A.U. after    7 cycles
            NFock=  7  Conv=0.66D-08     -V/T= 2.0085
 ExpMin= 1.69D-01 ExpMax= 7.16D+01 ExpMxC= 7.16D+01 IAcc=3 IRadAn=         5 AccDes= 0.00D+00
 HarFok:  IExCor=  205 AccDes= 0.00D+00 IRadAn=         5 IDoV=-2 UseB2=F ITyADJ=14
 ICtDFT= 12500011 ScaDFX=  1.000000  1.000000  1.000000  1.000000
 Range of M.O.s used for correlation:     3    16
 NBasis=    16 NAE=     9 NBE=     9 NFC=     2 NFV=     0
 NROrb=     14 NOA=     7 NOB=     7 NVA=     7 NVB=     7
 Fully direct method using O(ONN) memory.
 JobTyp=1 Pass  1:  I=   3 to   9 NPSUse=  3 ParTrn=F ParDer=T DoDerP=T.
 Spin components of T(2) and E(2):
     alpha-alpha T2 =       0.1556304969D-02 E2=     -0.4157081671D-02
     alpha-beta  T2 =       0.3781030715D-01 E2=     -0.9823615929D-01
     beta-beta   T2 =       0.1556304969D-02 E2=     -0.4157081671D-02
 ANorm=    0.1020256300D+01
 E2 =    -0.1065503226D+00 EUMP2 =    -0.78412482870140D+02
          IDoAtm=11111111
          Differentiating once with respect to electric field.
                with respect to dipole field.
          Differentiating once with respect to nuclear coordinates.
 Keep R1 ints in memory in symmetry-blocked form, NReq=822003.
          There are     1 degrees of freedom in the 1st order CPHF.  IDoFFX=0 NUNeed=     1.
 LinEq1:  Iter=  0 NonCon=     1 RMS=1.21D-03 Max=4.71D-03 NDo=     1
 AX will form     1 AO Fock derivatives at one time.
 LinEq1:  Iter=  1 NonCon=     1 RMS=1.56D-04 Max=7.23D-04 NDo=     1
 LinEq1:  Iter=  2 NonCon=     1 RMS=1.30D-05 Max=7.16D-05 NDo=     1
 LinEq1:  Iter=  3 NonCon=     1 RMS=6.62D-07 Max=2.70D-06 NDo=     1
 LinEq1:  Iter=  4 NonCon=     1 RMS=3.74D-08 Max=2.15D-07 NDo=     1
 LinEq1:  Iter=  5 NonCon=     1 RMS=2.44D-09 Max=1.24D-08 NDo=     1
 LinEq1:  Iter=  6 NonCon=     0 RMS=5.91D-11 Max=3.33D-10 NDo=     1
 Linear equations converged to 1.000D-10 1.000D-09 after     6 iterations.
 End of Minotr F.D. properties file   721 does not exist.
 End of Minotr F.D. properties file   722 does not exist.
 End of Minotr F.D. properties file   788 does not exist.

 **********************************************************************

            Population analysis using the SCF density.

 **********************************************************************

 Orbital symmetries:
       Occupied  (AU) (AG) (AG) (AU) (AU) (AU) (AG) (AG) (AG)
       Virtual   (AU) (AU) (AU) (AG) (AU) (AG) (AG)
 The electronic state is 1-AG.
 Alpha  occ. eigenvalues --  -11.03569 -11.03539  -0.97951  -0.80774  -0.57068
 Alpha  occ. eigenvalues --   -0.57068  -0.46910  -0.45822  -0.45822
 Alpha virt. eigenvalues --    0.65158   0.65158   0.68737   0.72584   0.77231
 Alpha virt. eigenvalues --    0.78393   0.78393
          Condensed to atoms (all electrons):
               1          2          3          4          5          6
     1  C    4.719064   0.361786   0.383717   0.383717   0.383718  -0.020647
     2  C    0.361786   4.719064  -0.020647  -0.020647  -0.020647   0.383718
     3  H    0.383717  -0.020647   0.625869  -0.021570  -0.021571  -0.002157
     4  H    0.383717  -0.020647  -0.021570   0.625870  -0.021570  -0.002157
     5  H    0.383718  -0.020647  -0.021571  -0.021570   0.625869   0.001828
     6  H   -0.020647   0.383718  -0.002157  -0.002157   0.001828   0.625869
     7  H   -0.020647   0.383717  -0.002157   0.001828  -0.002157  -0.021570
     8  H   -0.020647   0.383717   0.001828  -0.002157  -0.002157  -0.021571
               7          8
     1  C   -0.020647  -0.020647
     2  C    0.383717   0.383717
     3  H   -0.002157   0.001828
     4  H    0.001828  -0.002157
     5  H   -0.002157  -0.002157
     6  H   -0.021570  -0.021571
     7  H    0.625870  -0.021570
     8  H   -0.021570   0.625869
 Mulliken charges:
               1
     1  C   -0.170062
     2  C   -0.170062
     3  H    0.056687
     4  H    0.056687
     5  H    0.056688
     6  H    0.056688
     7  H    0.056687
     8  H    0.056687
 Sum of Mulliken charges =   0.00000
 Mulliken charges with hydrogens summed into heavy atoms:
               1
     1  C    0.000000
     2  C    0.000000
 Electronic spatial extent (au):  <R**2>=            107.6739
 Charge=              0.0000 electrons
 Dipole moment (field-independent basis, Debye):
    X=              0.0000    Y=              0.0000    Z=              0.0000  Tot=              0.0000
 Quadrupole moment (field-independent basis, Debye-Ang):
   XX=            -14.4924   YY=            -14.0202   ZZ=            -14.0190
   XY=              0.0245   XZ=              0.0000   YZ=              0.0000
 Traceless Quadrupole moment (field-independent basis, Debye-Ang):
   XX=             -0.3152   YY=              0.1570   ZZ=              0.1582
   XY=              0.0245   XZ=              0.0000   YZ=              0.0000
 Octapole moment (field-independent basis, Debye-Ang**2):
  XXX=              0.0000  YYY=              0.0000  ZZZ=              0.0000  XYY=              0.0000
  XXY=              0.0000  XXZ=              0.0000  XZZ=              0.0000  YZZ=              0.0000
  YYZ=              0.0000  XYZ=              0.0000
 Hexadecapole moment (field-independent basis, Debye-Ang**3):
 XXXX=            -85.0553 YYYY=            -25.4991 ZZZZ=            -25.1558 XXXY=              1.7281
 XXXZ=              0.0050 YYYX=              2.3411 YYYZ=             -0.0966 ZZZX=             -0.6242
 ZZZY=              0.0323 XXYY=            -17.2079 XXZZ=            -17.3671 YYZZ=             -8.3084
 XXYZ=              0.0643 YYXZ=              0.6192 ZZXY=             -0.5102
 N-N= 4.216957700541D+01 E-N=-2.658274885106D+02  KE= 7.764693385299D+01
 Symmetry AG   KE= 4.039343550110D+01
 Symmetry AU   KE= 3.725349835189D+01
 Calling FoFJK, ICntrl=  10002127 FMM=F ISym2X=1 I1Cent= 0 IOpClX= 0 NMat=1 NMatS=1 NMatT=0.
 ***** Axes restored to original set *****
 -------------------------------------------------------------------
 Center     Atomic                   Forces (Hartrees/Bohr)
 Number     Number              X              Y              Z
 -------------------------------------------------------------------
      1        6          -0.001247157    0.000062744    0.000001096
      2        6           0.001247157   -0.000062744   -0.000001096
      3        1          -0.004335942    0.002747380    0.007272843
      4        1          -0.004856729   -0.007316418   -0.001453795
      5        1          -0.004207248    0.005264129   -0.005820851
      6        1           0.004207248   -0.005264129    0.005820851
      7        1           0.004856729    0.007316418    0.001453795
      8        1           0.004335942   -0.002747380   -0.007272843
 -------------------------------------------------------------------
 Cartesian Forces:  Max     0.007316418 RMS     0.004465868

 GradGradGradGradGradGradGradGradGradGradGradGradGradGradGradGradGradGrad
 Berny optimization.
 FormGI is forming the generalized inverse of G from B-inverse, IUseBI=4.
 Internal  Forces:  Max     0.014666668 RMS     0.005018219
 Search for a local minimum.
 Step number   1 out of a maximum of   38
 All quantities printed in internal units (Hartrees-Bohrs-Radians)
 Mixed Optimization -- RFO/linear search
 Second derivative matrix not updated -- first step.
 ITU=  0
     Eigenvalues ---    0.00280   0.05575   0.05575   0.05575   0.05575
     Eigenvalues ---    0.16000   0.16000   0.16000   0.16000   0.16000
     Eigenvalues ---    0.16000   0.28809   0.34549   0.34549   0.34549
     Eigenvalues ---    0.34549   0.34550   0.34550
 RFO step:  Lambda=-2.24244455D-03 EMin= 2.79920382D-03
 Linear search not attempted -- first point.
 Iteration  1 RMS(Cart)=  0.02618667 RMS(Int)=  0.00006645
 Iteration  2 RMS(Cart)=  0.00008601 RMS(Int)=  0.00002772
 Iteration  3 RMS(Cart)=  0.00000001 RMS(Int)=  0.00002772
 ClnCor:  largest displacement from symmetrization is 1.28D-08 for atom     8.
 Variable       Old X    -DE/DX   Delta X   Delta X   Delta X     New X
                                 (Linear)    (Quad)   (Total)
    R1        2.90402   0.01467   0.00000   0.05052   0.05052   2.95454
    R2        2.06413   0.00877   0.00000   0.02523   0.02523   2.08936
    R3        2.06413   0.00877   0.00000   0.02523   0.02523   2.08936
    R4        2.06412   0.00878   0.00000   0.02524   0.02524   2.08936
    R5        2.06412   0.00878   0.00000   0.02524   0.02524   2.08936
    R6        2.06413   0.00877   0.00000   0.02523   0.02523   2.08936
    R7        2.06413   0.00877   0.00000   0.02523   0.02523   2.08936
    A1        1.92691   0.00150   0.00000   0.00927   0.00923   1.93614
    A2        1.92691   0.00151   0.00000   0.00928   0.00923   1.93614
    A3        1.92691   0.00151   0.00000   0.00928   0.00924   1.93615
    A4        1.89408  -0.00156   0.00000  -0.00959  -0.00963   1.88444
    A5        1.89407  -0.00156   0.00000  -0.00959  -0.00963   1.88445
    A6        1.89408  -0.00156   0.00000  -0.00959  -0.00963   1.88445
    A7        1.92691   0.00151   0.00000   0.00928   0.00924   1.93615
    A8        1.92691   0.00151   0.00000   0.00928   0.00923   1.93614
    A9        1.92691   0.00150   0.00000   0.00927   0.00923   1.93614
   A10        1.89408  -0.00156   0.00000  -0.00959  -0.00963   1.88445
   A11        1.89407  -0.00156   0.00000  -0.00959  -0.00963   1.88445
   A12        1.89408  -0.00156   0.00000  -0.00959  -0.00963   1.88444
    D1        1.04720   0.00000   0.00000   0.00000   0.00000   1.04720
    D2       -1.04719   0.00000   0.00000   0.00000   0.00000  -1.04720
    D3        3.14159   0.00000   0.00000   0.00000   0.00000   3.14159
    D4       -1.04720   0.00000   0.00000   0.00000   0.00000  -1.04720
    D5        3.14159   0.00000   0.00000   0.00000   0.00000   3.14159
    D6        1.04719   0.00000   0.00000   0.00000   0.00000   1.04720
    D7        3.14159   0.00000   0.00000   0.00000   0.00000   3.14159
    D8        1.04720   0.00000   0.00000   0.00000   0.00000   1.04720
    D9       -1.04720   0.00000   0.00000   0.00000   0.00000  -1.04720
         Item               Value     Threshold  Converged?
 Maximum Force            0.014667     0.000450     NO 
 RMS     Force            0.005018     0.000300     NO 
 Maximum Displacement     0.052887     0.001800     NO 
 RMS     Displacement     0.026231     0.001200     NO 
 Predicted change in Energy=-1.129561D-03
 GradGradGradGradGradGradGradGradGradGradGradGradGradGradGradGradGradGrad

                          Input orientation:                          
 ---------------------------------------------------------------------
 Center     Atomic      Atomic             Coordinates (Angstroms)
 Number     Number       Type             X           Y           Z
 ---------------------------------------------------------------------
      1          6           0       -6.401048    0.651701   -0.000001
      2          6           0       -4.839662    0.570929    0.000001
      3          1           0       -6.778071    1.009756    0.975750
      4          1           0       -6.847927   -0.340612   -0.195073
      5          1           0       -6.760617    1.347181   -0.780680
      6          1           0       -4.480093   -0.124551    0.780680
      7          1           0       -4.392783    1.563242    0.195073
      8          1           0       -4.462639    0.212874   -0.975750
 ---------------------------------------------------------------------
                    Distance matrix (angstroms):
                    1          2          3          4          5
     1  C    0.000000
     2  C    1.563474   0.000000
     3  H    1.105640   2.214065   0.000000
     4  H    1.105640   2.214066   1.788631   0.000000
     5  H    1.105641   2.214068   1.788633   1.788632   0.000000
     6  H    2.214068   1.105641   2.570099   2.570100   3.131234
     7  H    2.214066   1.105640   2.570098   3.131230   2.570100
     8  H    2.214065   1.105640   3.131230   2.570098   2.570099
                    6          7          8
     6  H    0.000000
     7  H    1.788632   0.000000
     8  H    1.788633   1.788631   0.000000
 Stoichiometry    C2H6
 Framework group  CI[X(C2H6)]
 Deg. of freedom     9
 Full point group                 CI      NOp   2
 Largest Abelian subgroup         CI      NOp   2
 Largest concise Abelian subgroup CI      NOp   2
                         Standard orientation:                         
 ---------------------------------------------------------------------
 Center     Atomic      Atomic             Coordinates (Angstroms)
 Number     Number       Type             X           Y           Z
 ---------------------------------------------------------------------
      1          6           0       -0.780693    0.040386   -0.000001
      2          6           0        0.780693   -0.040386    0.000001
      3          1           0       -1.157716    0.398441    0.975750
      4          1           0       -1.227572   -0.951927   -0.195073
      5          1           0       -1.140262    0.735866   -0.780680
      6          1           0        1.140262   -0.735866    0.780680
      7          1           0        1.227572    0.951927    0.195073
      8          1           0        1.157716   -0.398441   -0.975750
 ---------------------------------------------------------------------
 Rotational constants (GHZ):     78.3718649     19.2419323     19.2419271
 Standard basis: STO-3G (5D, 7F)
 There are     8 symmetry adapted cartesian basis functions of AG  symmetry.
 There are     8 symmetry adapted cartesian basis functions of AU  symmetry.
 There are     8 symmetry adapted basis functions of AG  symmetry.
 There are     8 symmetry adapted basis functions of AU  symmetry.
    16 basis functions,    48 primitive gaussians,    16 cartesian basis functions
     9 alpha electrons        9 beta electrons
       nuclear repulsion energy        41.5365972959 Hartrees.
 NAtoms=    8 NActive=    8 NUniq=    4 SFac= 4.00D+00 NAtFMM=   60 NAOKFM=F Big=F
 Integral buffers will be    131072 words long.
 Raffenetti 1 integral format.
 Two-electron integral symmetry is turned on.
 One-electron integrals computed using PRISM.
 NBasis=    16 RedAO= T EigKep=  1.54D-01  NBF=     8     8
 NBsUse=    16 1.00D-06 EigRej= -1.00D+00 NBFU=     8     8
 Initial guess from the checkpoint file:  "/scr/Gau-19686.chk"
 B after Tr=     0.000000    0.000000    0.000000
         Rot=    1.000000    0.000000    0.000000    0.000000 Ang=   0.00 deg.
 Initial guess orbital symmetries:
       Occupied  (AU) (AG) (AG) (AU) (AU) (AU) (AG) (AG) (AG)
       Virtual   (AG) (AG) (AG) (AU) (AU) (AU) (AU)
 ExpMin= 1.69D-01 ExpMax= 7.16D+01 ExpMxC= 7.16D+01 IAcc=1 IRadAn=         1 AccDes= 0.00D+00
 Harris functional with IExCor=  205 and IRadAn=       1 diagonalized for initial guess.
 HarFok:  IExCor=  205 AccDes= 0.00D+00 IRadAn=         1 IDoV= 1 UseB2=F ITyADJ=14
 ICtDFT=  3500011 ScaDFX=  1.000000  1.000000  1.000000  1.000000
 FoFCou: FMM=F IPFlag=           0 FMFlag=      100000 FMFlg1=           0
         NFxFlg=           0 DoJE=T BraDBF=F KetDBF=T FulRan=T
         wScrn=  0.000000 ICntrl=     500 IOpCl=  0 I1Cent=   200000004 NGrid=           0
         NMat0=    1 NMatS0=      1 NMatT0=    0 NMatD0=    1 NMtDS0=    0 NMtDT0=    0
 Petite list used in FoFCou.
 Keep R1 ints in memory in symmetry-blocked form, NReq=838434.
 Requested convergence on RMS density matrix=1.00D-08 within 128 cycles.
 Requested convergence on MAX density matrix=1.00D-06.
 Requested convergence on             energy=1.00D-06.
 No special actions if energy rises.
 SCF Done:  E(RHF) =  -78.3037971999     A.U. after    6 cycles
            NFock=  6  Conv=0.74D-08     -V/T= 2.0096
 ExpMin= 1.69D-01 ExpMax= 7.16D+01 ExpMxC= 7.16D+01 IAcc=3 IRadAn=         5 AccDes= 0.00D+00
 HarFok:  IExCor=  205 AccDes= 0.00D+00 IRadAn=         5 IDoV=-2 UseB2=F ITyADJ=14
 ICtDFT= 12500011 ScaDFX=  1.000000  1.000000  1.000000  1.000000
 Range of M.O.s used for correlation:     3    16
 NBasis=    16 NAE=     9 NBE=     9 NFC=     2 NFV=     0
 NROrb=     14 NOA=     7 NOB=     7 NVA=     7 NVB=     7
 Fully direct method using O(ONN) memory.
 JobTyp=1 Pass  1:  I=   3 to   9 NPSUse=  3 ParTrn=F ParDer=T DoDerP=T.
 Spin components of T(2) and E(2):
     alpha-alpha T2 =       0.1655644164D-02 E2=     -0.4335252069D-02
     alpha-beta  T2 =       0.3947105467D-01 E2=     -0.1007757819D+00
     beta-beta   T2 =       0.1655644164D-02 E2=     -0.4335252069D-02
 ANorm=    0.1021167147D+01
 E2 =    -0.1094462861D+00 EUMP2 =    -0.78413243485992D+02
          IDoAtm=11111111
          Differentiating once with respect to electric field.
                with respect to dipole field.
          Differentiating once with respect to nuclear coordinates.
 Keep R1 ints in memory in symmetry-blocked form, NReq=822003.
          There are     1 degrees of freedom in the 1st order CPHF.  IDoFFX=0 NUNeed=     1.
 LinEq1:  Iter=  0 NonCon=     1 RMS=1.23D-03 Max=5.08D-03 NDo=     1
 AX will form     1 AO Fock derivatives at one time.
 LinEq1:  Iter=  1 NonCon=     1 RMS=1.72D-04 Max=8.25D-04 NDo=     1
 LinEq1:  Iter=  2 NonCon=     1 RMS=1.34D-05 Max=7.53D-05 NDo=     1
 LinEq1:  Iter=  3 NonCon=     1 RMS=7.04D-07 Max=2.78D-06 NDo=     1
 LinEq1:  Iter=  4 NonCon=     1 RMS=3.87D-08 Max=2.28D-07 NDo=     1
 LinEq1:  Iter=  5 NonCon=     1 RMS=2.47D-09 Max=1.38D-08 NDo=     1
 LinEq1:  Iter=  6 NonCon=     0 RMS=6.32D-11 Max=3.68D-10 NDo=     1
 Linear equations converged to 1.000D-10 1.000D-09 after     6 iterations.
 End of Minotr F.D. properties file   721 does not exist.
 End of Minotr F.D. properties file   722 does not exist.
 End of Minotr F.D. properties file   788 does not exist.
 Calling FoFJK, ICntrl=  10002127 FMM=F ISym2X=1 I1Cent= 0 IOpClX= 0 NMat=1 NMatS=1 NMatT=0.
 ***** Axes restored to original set *****
 -------------------------------------------------------------------
 Center     Atomic                   Forces (Hartrees/Bohr)
 Number     Number              X              Y              Z
 -------------------------------------------------------------------
      1        6           0.002046033   -0.000105409   -0.000000012
      2        6          -0.002046033    0.000105409    0.000000012
      3        1           0.001351234   -0.000541073   -0.001358282
      4        1           0.001448523    0.001338313    0.000271438
      5        1           0.001327502   -0.001011317    0.001087263
      6        1          -0.001327502    0.001011317   -0.001087263
      7        1          -0.001448523   -0.001338313   -0.000271438
      8        1          -0.001351234    0.000541073    0.001358282
 -------------------------------------------------------------------
 Cartesian Forces:  Max     0.002046033 RMS     0.001157981

 GradGradGradGradGradGradGradGradGradGradGradGradGradGradGradGradGradGrad
 Berny optimization.
 Using GEDIIS/GDIIS optimizer.
 FormGI is forming the generalized inverse of G from B-inverse, IUseBI=4.
 Internal  Forces:  Max     0.006181554 RMS     0.001533438
 Search for a local minimum.
 Step number   2 out of a maximum of   38
 All quantities printed in internal units (Hartrees-Bohrs-Radians)
 Mixed Optimization -- RFO/linear search
 Update second derivatives using D2CorX and points    1    2
 DE= -7.61D-04 DEPred=-1.13D-03 R= 6.73D-01
 TightC=F SS=  1.41D+00  RLast= 8.63D-02 DXNew= 5.0454D-01 2.5876D-01
 Trust test= 6.73D-01 RLast= 8.63D-02 DXMaxT set to 3.00D-01
 ITU=  1  0
 Use linear search instead of GDIIS.
     Eigenvalues ---    0.00280   0.05478   0.05478   0.05478   0.05478
     Eigenvalues ---    0.16000   0.16000   0.16000   0.16000   0.16000
     Eigenvalues ---    0.16555   0.30878   0.34549   0.34549   0.34549
     Eigenvalues ---    0.34550   0.34550   0.40893
 RFO step:  Lambda=-1.81837193D-05 EMin= 2.79920382D-03
 Quartic linear search produced a step of -0.24031.
 Iteration  1 RMS(Cart)=  0.00810918 RMS(Int)=  0.00000701
 Iteration  2 RMS(Cart)=  0.00000667 RMS(Int)=  0.00000215
 Iteration  3 RMS(Cart)=  0.00000000 RMS(Int)=  0.00000215
 ClnCor:  largest displacement from symmetrization is 8.22D-09 for atom     7.
 Variable       Old X    -DE/DX   Delta X   Delta X   Delta X     New X
                                 (Linear)    (Quad)   (Total)
    R1        2.95454  -0.00618  -0.01214  -0.00420  -0.01634   2.93820
    R2        2.08936  -0.00183  -0.00606   0.00205  -0.00402   2.08534
    R3        2.08936  -0.00183  -0.00606   0.00205  -0.00401   2.08534
    R4        2.08936  -0.00184  -0.00606   0.00205  -0.00402   2.08534
    R5        2.08936  -0.00184  -0.00606   0.00205  -0.00402   2.08534
    R6        2.08936  -0.00183  -0.00606   0.00205  -0.00401   2.08534
    R7        2.08936  -0.00183  -0.00606   0.00205  -0.00402   2.08534
    A1        1.93614  -0.00077  -0.00222  -0.00150  -0.00372   1.93243
    A2        1.93614  -0.00077  -0.00222  -0.00150  -0.00372   1.93243
    A3        1.93615  -0.00077  -0.00222  -0.00150  -0.00372   1.93243
    A4        1.88444   0.00081   0.00231   0.00158   0.00390   1.88834
    A5        1.88445   0.00081   0.00231   0.00158   0.00390   1.88834
    A6        1.88445   0.00081   0.00231   0.00158   0.00390   1.88834
    A7        1.93615  -0.00077  -0.00222  -0.00150  -0.00372   1.93243
    A8        1.93614  -0.00077  -0.00222  -0.00150  -0.00372   1.93243
    A9        1.93614  -0.00077  -0.00222  -0.00150  -0.00372   1.93243
   A10        1.88445   0.00081   0.00231   0.00158   0.00390   1.88834
   A11        1.88445   0.00081   0.00231   0.00158   0.00390   1.88834
   A12        1.88444   0.00081   0.00231   0.00158   0.00390   1.88834
    D1        1.04720   0.00000   0.00000   0.00000   0.00000   1.04720
    D2       -1.04720   0.00000   0.00000   0.00000   0.00000  -1.04720
    D3        3.14159   0.00000   0.00000   0.00000   0.00000   3.14159
    D4       -1.04720   0.00000   0.00000   0.00000   0.00000  -1.04720
    D5        3.14159   0.00000   0.00000   0.00000   0.00000   3.14159
    D6        1.04720   0.00000   0.00000   0.00000   0.00000   1.04720
    D7        3.14159   0.00000   0.00000   0.00000   0.00000   3.14159
    D8        1.04720   0.00000   0.00000   0.00000   0.00000   1.04720
    D9       -1.04720   0.00000   0.00000   0.00000   0.00000  -1.04720
         Item               Value     Threshold  Converged?
 Maximum Force            0.006182     0.000450     NO 
 RMS     Force            0.001533     0.000300     NO 
 Maximum Displacement     0.016875     0.001800     NO 
 RMS     Displacement     0.008112     0.001200     NO 
 Predicted change in Energy=-8.769527D-05
 GradGradGradGradGradGradGradGradGradGradGradGradGradGradGradGradGradGrad

                          Input orientation:                          
 ---------------------------------------------------------------------
 Center     Atomic      Atomic             Coordinates (Angstroms)
 Number     Number       Type             X           Y           Z
 ---------------------------------------------------------------------
      1          6           0       -6.396732    0.651477    0.000000
      2          6           0       -4.843978    0.571153    0.000000
      3          1           0       -6.769178    1.009124    0.975253
      4          1           0       -6.838997   -0.340557   -0.194974
      5          1           0       -6.751730    1.346376   -0.780281
      6          1           0       -4.488980   -0.123746    0.780281
      7          1           0       -4.401713    1.563187    0.194974
      8          1           0       -4.471532    0.213506   -0.975253
 ---------------------------------------------------------------------
                    Distance matrix (angstroms):
                    1          2          3          4          5
     1  C    0.000000
     2  C    1.554829   0.000000
     3  H    1.103515   2.202119   0.000000
     4  H    1.103515   2.202119   1.787720   0.000000
     5  H    1.103515   2.202119   1.787720   1.787720   0.000000
     6  H    2.202119   1.103515   2.553568   2.553568   3.117154
     7  H    2.202119   1.103515   2.553568   3.117155   2.553568
     8  H    2.202119   1.103515   3.117155   2.553568   2.553568
                    6          7          8
     6  H    0.000000
     7  H    1.787720   0.000000
     8  H    1.787720   1.787720   0.000000
 Stoichiometry    C2H6
 Framework group  CI[X(C2H6)]
 Deg. of freedom     9
 Full point group                 CI      NOp   2
 Largest Abelian subgroup         CI      NOp   2
 Largest concise Abelian subgroup CI      NOp   2
                         Standard orientation:                         
 ---------------------------------------------------------------------
 Center     Atomic      Atomic             Coordinates (Angstroms)
 Number     Number       Type             X           Y           Z
 ---------------------------------------------------------------------
      1          6           0       -0.776377    0.040162    0.000000
      2          6           0        0.776377   -0.040162    0.000000
      3          1           0       -1.148823    0.397809    0.975253
      4          1           0       -1.218642   -0.951872   -0.194974
      5          1           0       -1.131375    0.735061   -0.780281
      6          1           0        1.131375   -0.735061    0.780281
      7          1           0        1.218642    0.951872    0.194974
      8          1           0        1.148823   -0.397809   -0.975253
 ---------------------------------------------------------------------
 Rotational constants (GHZ):     78.4518174     19.4578258     19.4578254
 Standard basis: STO-3G (5D, 7F)
 There are     8 symmetry adapted cartesian basis functions of AG  symmetry.
 There are     8 symmetry adapted cartesian basis functions of AU  symmetry.
 There are     8 symmetry adapted basis functions of AG  symmetry.
 There are     8 symmetry adapted basis functions of AU  symmetry.
    16 basis functions,    48 primitive gaussians,    16 cartesian basis functions
     9 alpha electrons        9 beta electrons
       nuclear repulsion energy        41.6953937303 Hartrees.
 NAtoms=    8 NActive=    8 NUniq=    4 SFac= 4.00D+00 NAtFMM=   60 NAOKFM=F Big=F
 Integral buffers will be    131072 words long.
 Raffenetti 1 integral format.
 Two-electron integral symmetry is turned on.
 One-electron integrals computed using PRISM.
 NBasis=    16 RedAO= T EigKep=  1.53D-01  NBF=     8     8
 NBsUse=    16 1.00D-06 EigRej= -1.00D+00 NBFU=     8     8
 Initial guess from the checkpoint file:  "/scr/Gau-19686.chk"
 B after Tr=     0.000000    0.000000    0.000000
         Rot=    1.000000    0.000000    0.000000    0.000000 Ang=   0.00 deg.
 Initial guess orbital symmetries:
       Occupied  (AU) (AG) (AG) (AU) (AU) (AU) (AG) (AG) (AG)
       Virtual   (AG) (AG) (AG) (AU) (AU) (AU) (AU)
 Keep R1 ints in memory in symmetry-blocked form, NReq=838434.
 Requested convergence on RMS density matrix=1.00D-08 within 128 cycles.
 Requested convergence on MAX density matrix=1.00D-06.
 Requested convergence on             energy=1.00D-06.
 No special actions if energy rises.
 SCF Done:  E(RHF) =  -78.3044730828     A.U. after    6 cycles
            NFock=  6  Conv=0.22D-08     -V/T= 2.0094
 ExpMin= 1.69D-01 ExpMax= 7.16D+01 ExpMxC= 7.16D+01 IAcc=3 IRadAn=         5 AccDes= 0.00D+00
 HarFok:  IExCor=  205 AccDes= 0.00D+00 IRadAn=         5 IDoV=-2 UseB2=F ITyADJ=14
 ICtDFT= 12500011 ScaDFX=  1.000000  1.000000  1.000000  1.000000
 Range of M.O.s used for correlation:     3    16
 NBasis=    16 NAE=     9 NBE=     9 NFC=     2 NFV=     0
 NROrb=     14 NOA=     7 NOB=     7 NVA=     7 NVB=     7
 Fully direct method using O(ONN) memory.
 JobTyp=1 Pass  1:  I=   3 to   9 NPSUse=  3 ParTrn=F ParDer=T DoDerP=T.
 Spin components of T(2) and E(2):
     alpha-alpha T2 =       0.1634628609D-02 E2=     -0.4299813154D-02
     alpha-beta  T2 =       0.3912463760D-01 E2=     -0.1002581395D+00
     beta-beta   T2 =       0.1634628609D-02 E2=     -0.4299813154D-02
 ANorm=    0.1020976932D+01
 E2 =    -0.1088577658D+00 EUMP2 =    -0.78413330848626D+02
          IDoAtm=11111111
          Differentiating once with respect to electric field.
                with respect to dipole field.
          Differentiating once with respect to nuclear coordinates.
 Keep R1 ints in memory in symmetry-blocked form, NReq=822003.
          There are     1 degrees of freedom in the 1st order CPHF.  IDoFFX=0 NUNeed=     1.
 LinEq1:  Iter=  0 NonCon=     1 RMS=1.23D-03 Max=4.94D-03 NDo=     1
 AX will form     1 AO Fock derivatives at one time.
 LinEq1:  Iter=  1 NonCon=     1 RMS=1.69D-04 Max=8.06D-04 NDo=     1
 LinEq1:  Iter=  2 NonCon=     1 RMS=1.33D-05 Max=7.44D-05 NDo=     1
 LinEq1:  Iter=  3 NonCon=     1 RMS=6.97D-07 Max=2.79D-06 NDo=     1
 LinEq1:  Iter=  4 NonCon=     1 RMS=3.88D-08 Max=2.27D-07 NDo=     1
 LinEq1:  Iter=  5 NonCon=     1 RMS=2.50D-09 Max=1.36D-08 NDo=     1
 LinEq1:  Iter=  6 NonCon=     0 RMS=6.32D-11 Max=3.66D-10 NDo=     1
 Linear equations converged to 1.000D-10 1.000D-09 after     6 iterations.
 End of Minotr F.D. properties file   721 does not exist.
 End of Minotr F.D. properties file   722 does not exist.
 End of Minotr F.D. properties file   788 does not exist.
 Calling FoFJK, ICntrl=  10002127 FMM=F ISym2X=1 I1Cent= 0 IOpClX= 0 NMat=1 NMatS=1 NMatT=0.
 ***** Axes restored to original set *****
 -------------------------------------------------------------------
 Center     Atomic                   Forces (Hartrees/Bohr)
 Number     Number              X              Y              Z
 -------------------------------------------------------------------
      1        6          -0.000362452    0.000018852   -0.000000105
      2        6           0.000362452   -0.000018852    0.000000105
      3        1          -0.000035321   -0.000089610   -0.000263478
      4        1          -0.000016482    0.000275029    0.000052686
      5        1          -0.000040092   -0.000180720    0.000210820
      6        1           0.000040092    0.000180720   -0.000210820
      7        1           0.000016482   -0.000275029   -0.000052686
      8        1           0.000035321    0.000089610    0.000263478
 -------------------------------------------------------------------
 Cartesian Forces:  Max     0.000362452 RMS     0.000175077

 GradGradGradGradGradGradGradGradGradGradGradGradGradGradGradGradGradGrad
 Berny optimization.
 Using GEDIIS/GDIIS optimizer.
 FormGI is forming the generalized inverse of G from B-inverse, IUseBI=4.
 Internal  Forces:  Max     0.000454956 RMS     0.000167347
 Search for a local minimum.
 Step number   3 out of a maximum of   38
 All quantities printed in internal units (Hartrees-Bohrs-Radians)
 Mixed Optimization -- En-DIIS/RFO-DIIS
 Update second derivatives using D2CorX and points    1    2    3
 DE= -8.74D-05 DEPred=-8.77D-05 R= 9.96D-01
 TightC=F SS=  1.41D+00  RLast= 2.32D-02 DXNew= 5.0454D-01 6.9563D-02
 Trust test= 9.96D-01 RLast= 2.32D-02 DXMaxT set to 3.00D-01
 ITU=  1  1  0
 Use linear search instead of GDIIS.
     Eigenvalues ---    0.00280   0.05517   0.05517   0.05517   0.05517
     Eigenvalues ---    0.16000   0.16000   0.16000   0.16000   0.16000
     Eigenvalues ---    0.17257   0.32904   0.34549   0.34549   0.34549
     Eigenvalues ---    0.34550   0.34550   0.38317
 RFO step:  Lambda=-2.47724767D-06 EMin= 2.79920382D-03
 Quartic linear search produced a step of -0.03841.
 Iteration  1 RMS(Cart)=  0.00093716 RMS(Int)=  0.00000037
 Iteration  2 RMS(Cart)=  0.00000041 RMS(Int)=  0.00000003
 ClnCor:  largest displacement from symmetrization is 7.29D-09 for atom     6.
 Variable       Old X    -DE/DX   Delta X   Delta X   Delta X     New X
                                 (Linear)    (Quad)   (Total)
    R1        2.93820   0.00045   0.00063   0.00048   0.00110   2.93931
    R2        2.08534  -0.00025   0.00015  -0.00095  -0.00080   2.08454
    R3        2.08534  -0.00025   0.00015  -0.00095  -0.00080   2.08454
    R4        2.08534  -0.00025   0.00015  -0.00095  -0.00080   2.08454
    R5        2.08534  -0.00025   0.00015  -0.00095  -0.00080   2.08454
    R6        2.08534  -0.00025   0.00015  -0.00095  -0.00080   2.08454
    R7        2.08534  -0.00025   0.00015  -0.00095  -0.00080   2.08454
    A1        1.93243   0.00013   0.00014   0.00052   0.00067   1.93309
    A2        1.93243   0.00013   0.00014   0.00052   0.00067   1.93309
    A3        1.93243   0.00013   0.00014   0.00052   0.00067   1.93309
    A4        1.88834  -0.00013  -0.00015  -0.00055  -0.00070   1.88765
    A5        1.88834  -0.00013  -0.00015  -0.00055  -0.00070   1.88765
    A6        1.88834  -0.00013  -0.00015  -0.00055  -0.00070   1.88765
    A7        1.93243   0.00013   0.00014   0.00052   0.00067   1.93309
    A8        1.93243   0.00013   0.00014   0.00052   0.00067   1.93309
    A9        1.93243   0.00013   0.00014   0.00052   0.00067   1.93309
   A10        1.88834  -0.00013  -0.00015  -0.00055  -0.00070   1.88765
   A11        1.88834  -0.00013  -0.00015  -0.00055  -0.00070   1.88765
   A12        1.88834  -0.00013  -0.00015  -0.00055  -0.00070   1.88765
    D1        1.04720   0.00000   0.00000   0.00000   0.00000   1.04720
    D2       -1.04720   0.00000   0.00000   0.00000   0.00000  -1.04720
    D3        3.14159   0.00000   0.00000   0.00000   0.00000   3.14159
    D4       -1.04720   0.00000   0.00000   0.00000   0.00000  -1.04720
    D5       -3.14159   0.00000   0.00000   0.00000   0.00000   3.14159
    D6        1.04720   0.00000   0.00000   0.00000   0.00000   1.04720
    D7        3.14159   0.00000   0.00000   0.00000   0.00000   3.14159
    D8        1.04720   0.00000   0.00000   0.00000   0.00000   1.04720
    D9       -1.04720   0.00000   0.00000   0.00000   0.00000  -1.04720
         Item               Value     Threshold  Converged?
 Maximum Force            0.000455     0.000450     NO 
 RMS     Force            0.000167     0.000300     YES
 Maximum Displacement     0.001609     0.001800     YES
 RMS     Displacement     0.000937     0.001200     YES
 Predicted change in Energy=-1.383413D-06
 GradGradGradGradGradGradGradGradGradGradGradGradGradGradGradGradGradGrad

                          Input orientation:                          
 ---------------------------------------------------------------------
 Center     Atomic      Atomic             Coordinates (Angstroms)
 Number     Number       Type             X           Y           Z
 ---------------------------------------------------------------------
      1          6           0       -6.397023    0.651493   -0.000001
      2          6           0       -4.843687    0.571137    0.000001
      3          1           0       -6.770018    1.008952    0.974633
      4          1           0       -6.839793   -0.339872   -0.194850
      5          1           0       -6.752582    1.345990   -0.779786
      6          1           0       -4.488128   -0.123360    0.779786
      7          1           0       -4.400917    1.562502    0.194850
      8          1           0       -4.470692    0.213678   -0.974633
 ---------------------------------------------------------------------
                    Distance matrix (angstroms):
                    1          2          3          4          5
     1  C    0.000000
     2  C    1.555414   0.000000
     3  H    1.103093   2.202804   0.000000
     4  H    1.103093   2.202804   1.786585   0.000000
     5  H    1.103093   2.202804   1.786585   1.786585   0.000000
     6  H    2.202804   1.103093   2.554823   2.554823   3.117532
     7  H    2.202804   1.103093   2.554823   3.117532   2.554823
     8  H    2.202804   1.103093   3.117532   2.554823   2.554823
                    6          7          8
     6  H    0.000000
     7  H    1.786585   0.000000
     8  H    1.786585   1.786585   0.000000
 This structure is nearly, but not quite of a higher symmetry.
 Consider Symm=Loose if the higher symmetry is desired.
 Stoichiometry    C2H6
 Framework group  CI[X(C2H6)]
 Deg. of freedom     9
 Full point group                 CI      NOp   2
 Largest Abelian subgroup         CI      NOp   2
 Largest concise Abelian subgroup CI      NOp   2
                         Standard orientation:                         
 ---------------------------------------------------------------------
 Center     Atomic      Atomic             Coordinates (Angstroms)
 Number     Number       Type             X           Y           Z
 ---------------------------------------------------------------------
      1          6           0       -0.776668    0.040178   -0.000001
      2          6           0        0.776668   -0.040178    0.000001
      3          1           0       -1.149663    0.397637    0.974633
      4          1           0       -1.219438   -0.951187   -0.194850
      5          1           0       -1.132227    0.734675   -0.779786
      6          1           0        1.132227   -0.734675    0.779786
      7          1           0        1.219438    0.951187    0.194850
      8          1           0        1.149663   -0.397637   -0.974633
 ---------------------------------------------------------------------
 Rotational constants (GHZ):     78.5515136     19.4439415     19.4439415
 Standard basis: STO-3G (5D, 7F)
 There are     8 symmetry adapted cartesian basis functions of AG  symmetry.
 There are     8 symmetry adapted cartesian basis functions of AU  symmetry.
 There are     8 symmetry adapted basis functions of AG  symmetry.
 There are     8 symmetry adapted basis functions of AU  symmetry.
    16 basis functions,    48 primitive gaussians,    16 cartesian basis functions
     9 alpha electrons        9 beta electrons
       nuclear repulsion energy        41.6951650853 Hartrees.
 NAtoms=    8 NActive=    8 NUniq=    4 SFac= 4.00D+00 NAtFMM=   60 NAOKFM=F Big=F
 Integral buffers will be    131072 words long.
 Raffenetti 1 integral format.
 Two-electron integral symmetry is turned on.
 One-electron integrals computed using PRISM.
 NBasis=    16 RedAO= T EigKep=  1.53D-01  NBF=     8     8
 NBsUse=    16 1.00D-06 EigRej= -1.00D+00 NBFU=     8     8
 Initial guess from the checkpoint file:  "/scr/Gau-19686.chk"
 B after Tr=     0.000000    0.000000    0.000000
         Rot=    1.000000    0.000000    0.000000    0.000000 Ang=   0.00 deg.
 Initial guess orbital symmetries:
       Occupied  (AU) (AG) (AG) (AU) (AU) (AU) (AG) (AG) (AG)
       Virtual   (AG) (AG) (AG) (AU) (AU) (AU) (AU)
 Keep R1 ints in memory in symmetry-blocked form, NReq=838434.
 Requested convergence on RMS density matrix=1.00D-08 within 128 cycles.
 Requested convergence on MAX density matrix=1.00D-06.
 Requested convergence on             energy=1.00D-06.
 No special actions if energy rises.
 SCF Done:  E(RHF) =  -78.3045269570     A.U. after    6 cycles
            NFock=  6  Conv=0.16D-09     -V/T= 2.0094
 ExpMin= 1.69D-01 ExpMax= 7.16D+01 ExpMxC= 7.16D+01 IAcc=3 IRadAn=         5 AccDes= 0.00D+00
 HarFok:  IExCor=  205 AccDes= 0.00D+00 IRadAn=         5 IDoV=-2 UseB2=F ITyADJ=14
 ICtDFT= 12500011 ScaDFX=  1.000000  1.000000  1.000000  1.000000
 Range of M.O.s used for correlation:     3    16
 NBasis=    16 NAE=     9 NBE=     9 NFC=     2 NFV=     0
 NROrb=     14 NOA=     7 NOB=     7 NVA=     7 NVB=     7
 Fully direct method using O(ONN) memory.
 JobTyp=1 Pass  1:  I=   3 to   9 NPSUse=  3 ParTrn=F ParDer=T DoDerP=T.
 Spin components of T(2) and E(2):
     alpha-alpha T2 =       0.1633028657D-02 E2=     -0.4296379480D-02
     alpha-beta  T2 =       0.3909624087D-01 E2=     -0.1002121318D+00
     beta-beta   T2 =       0.1633028657D-02 E2=     -0.4296379480D-02
 ANorm=    0.1020961458D+01
 E2 =    -0.1088048907D+00 EUMP2 =    -0.78413331847726D+02
          IDoAtm=11111111
          Differentiating once with respect to electric field.
                with respect to dipole field.
          Differentiating once with respect to nuclear coordinates.
 Keep R1 ints in memory in symmetry-blocked form, NReq=822003.
          There are     1 degrees of freedom in the 1st order CPHF.  IDoFFX=0 NUNeed=     1.
 LinEq1:  Iter=  0 NonCon=     1 RMS=1.23D-03 Max=4.96D-03 NDo=     1
 AX will form     1 AO Fock derivatives at one time.
 LinEq1:  Iter=  1 NonCon=     1 RMS=1.69D-04 Max=8.04D-04 NDo=     1
 LinEq1:  Iter=  2 NonCon=     1 RMS=1.33D-05 Max=7.43D-05 NDo=     1
 LinEq1:  Iter=  3 NonCon=     1 RMS=6.96D-07 Max=2.78D-06 NDo=     1
 LinEq1:  Iter=  4 NonCon=     1 RMS=3.87D-08 Max=2.26D-07 NDo=     1
 LinEq1:  Iter=  5 NonCon=     1 RMS=2.49D-09 Max=1.36D-08 NDo=     1
 LinEq1:  Iter=  6 NonCon=     0 RMS=6.29D-11 Max=3.64D-10 NDo=     1
 Linear equations converged to 1.000D-10 1.000D-09 after     6 iterations.
 End of Minotr F.D. properties file   721 does not exist.
 End of Minotr F.D. properties file   722 does not exist.
 End of Minotr F.D. properties file   788 does not exist.
 Calling FoFJK, ICntrl=  10002127 FMM=F ISym2X=1 I1Cent= 0 IOpClX= 0 NMat=1 NMatS=1 NMatT=0.
 ***** Axes restored to original set *****
 -------------------------------------------------------------------
 Center     Atomic                   Forces (Hartrees/Bohr)
 Number     Number              X              Y              Z
 -------------------------------------------------------------------
      1        6           0.000139147   -0.000007225    0.000000027
      2        6          -0.000139147    0.000007225   -0.000000027
      3        1          -0.000014245    0.000034252    0.000096598
      4        1          -0.000021154   -0.000099422   -0.000019310
      5        1          -0.000012498    0.000067660   -0.000077293
      6        1           0.000012498   -0.000067660    0.000077293
      7        1           0.000021154    0.000099422    0.000019310
      8        1           0.000014245   -0.000034252   -0.000096598
 -------------------------------------------------------------------
 Cartesian Forces:  Max     0.000139147 RMS     0.000065533

 GradGradGradGradGradGradGradGradGradGradGradGradGradGradGradGradGradGrad
 Berny optimization.
 Using GEDIIS/GDIIS optimizer.
 FormGI is forming the generalized inverse of G from B-inverse, IUseBI=4.
 Internal  Forces:  Max     0.000101266 RMS     0.000051931
 Search for a local minimum.
 Step number   4 out of a maximum of   38
 All quantities printed in internal units (Hartrees-Bohrs-Radians)
 Mixed Optimization -- En-DIIS/RFO-DIIS
 Swapping is turned off.
 Update second derivatives using D2CorX and points    1    2    3    4
 DE= -9.99D-07 DEPred=-1.38D-06 R= 7.22D-01
 TightC=F SS=  1.41D+00  RLast= 3.26D-03 DXNew= 5.0454D-01 9.7752D-03
 Trust test= 7.22D-01 RLast= 3.26D-03 DXMaxT set to 3.00D-01
 ITU=  1  1  1  0
     Eigenvalues ---    0.00280   0.05510   0.05510   0.05510   0.05510
     Eigenvalues ---    0.16000   0.16000   0.16000   0.16000   0.16000
     Eigenvalues ---    0.17524   0.34549   0.34549   0.34549   0.34550
     Eigenvalues ---    0.34550   0.38187   0.42361
 En-DIIS/RFO-DIIS IScMMF=        0 using points:     4    3
 RFO step:  Lambda=-1.17452697D-07.
 DidBck=T Rises=F RFO-DIIS coefs:    0.78351    0.21649
 Iteration  1 RMS(Cart)=  0.00015837 RMS(Int)=  0.00000003
 Iteration  2 RMS(Cart)=  0.00000001 RMS(Int)=  0.00000003
 ClnCor:  largest displacement from symmetrization is 2.88D-09 for atom     8.
 Variable       Old X    -DE/DX   Delta X   Delta X   Delta X     New X
                                 (Linear)    (Quad)   (Total)
    R1        2.93931  -0.00009  -0.00024   0.00005  -0.00019   2.93912
    R2        2.08454   0.00010   0.00017   0.00006   0.00024   2.08478
    R3        2.08454   0.00010   0.00017   0.00006   0.00024   2.08478
    R4        2.08454   0.00010   0.00017   0.00006   0.00024   2.08478
    R5        2.08454   0.00010   0.00017   0.00006   0.00024   2.08478
    R6        2.08454   0.00010   0.00017   0.00006   0.00024   2.08478
    R7        2.08454   0.00010   0.00017   0.00006   0.00024   2.08478
    A1        1.93309  -0.00002  -0.00014   0.00006  -0.00009   1.93301
    A2        1.93309  -0.00002  -0.00014   0.00006  -0.00009   1.93301
    A3        1.93309  -0.00002  -0.00014   0.00006  -0.00009   1.93301
    A4        1.88765   0.00002   0.00015  -0.00006   0.00009   1.88774
    A5        1.88765   0.00002   0.00015  -0.00006   0.00009   1.88774
    A6        1.88765   0.00002   0.00015  -0.00006   0.00009   1.88774
    A7        1.93309  -0.00002  -0.00014   0.00006  -0.00009   1.93301
    A8        1.93309  -0.00002  -0.00014   0.00006  -0.00009   1.93301
    A9        1.93309  -0.00002  -0.00014   0.00006  -0.00009   1.93301
   A10        1.88765   0.00002   0.00015  -0.00006   0.00009   1.88774
   A11        1.88765   0.00002   0.00015  -0.00006   0.00009   1.88774
   A12        1.88765   0.00002   0.00015  -0.00006   0.00009   1.88774
    D1        1.04720   0.00000   0.00000   0.00000   0.00000   1.04720
    D2       -1.04720   0.00000   0.00000   0.00000   0.00000  -1.04720
    D3        3.14159   0.00000   0.00000   0.00000   0.00000   3.14159
    D4       -1.04720   0.00000   0.00000   0.00000   0.00000  -1.04720
    D5        3.14159   0.00000   0.00000   0.00000   0.00000   3.14159
    D6        1.04720   0.00000   0.00000   0.00000   0.00000   1.04720
    D7        3.14159   0.00000   0.00000   0.00000   0.00000   3.14159
    D8        1.04720   0.00000   0.00000   0.00000   0.00000   1.04720
    D9       -1.04720   0.00000   0.00000   0.00000   0.00000  -1.04720
         Item               Value     Threshold  Converged?
 Maximum Force            0.000101     0.000450     YES
 RMS     Force            0.000052     0.000300     YES
 Maximum Displacement     0.000289     0.001800     YES
 RMS     Displacement     0.000158     0.001200     YES
 Predicted change in Energy=-9.191848D-08
 Optimization completed.
    -- Stationary point found.
                           ----------------------------
                           !   Optimized Parameters   !
                           ! (Angstroms and Degrees)  !
 --------------------------                            --------------------------
 ! Name  Definition              Value          Derivative Info.                !
 --------------------------------------------------------------------------------
 ! R1    R(1,2)                  1.5554         -DE/DX =   -0.0001              !
 ! R2    R(1,3)                  1.1031         -DE/DX =    0.0001              !
 ! R3    R(1,4)                  1.1031         -DE/DX =    0.0001              !
 ! R4    R(1,5)                  1.1031         -DE/DX =    0.0001              !
 ! R5    R(2,6)                  1.1031         -DE/DX =    0.0001              !
 ! R6    R(2,7)                  1.1031         -DE/DX =    0.0001              !
 ! R7    R(2,8)                  1.1031         -DE/DX =    0.0001              !
 ! A1    A(2,1,3)              110.7582         -DE/DX =    0.0                 !
 ! A2    A(2,1,4)              110.7582         -DE/DX =    0.0                 !
 ! A3    A(2,1,5)              110.7582         -DE/DX =    0.0                 !
 ! A4    A(3,1,4)              108.1542         -DE/DX =    0.0                 !
 ! A5    A(3,1,5)              108.1542         -DE/DX =    0.0                 !
 ! A6    A(4,1,5)              108.1542         -DE/DX =    0.0                 !
 ! A7    A(1,2,6)              110.7582         -DE/DX =    0.0                 !
 ! A8    A(1,2,7)              110.7582         -DE/DX =    0.0                 !
 ! A9    A(1,2,8)              110.7582         -DE/DX =    0.0                 !
 ! A10   A(6,2,7)              108.1542         -DE/DX =    0.0                 !
 ! A11   A(6,2,8)              108.1542         -DE/DX =    0.0                 !
 ! A12   A(7,2,8)              108.1542         -DE/DX =    0.0                 !
 ! D1    D(3,1,2,6)             60.0            -DE/DX =    0.0                 !
 ! D2    D(3,1,2,7)            -60.0            -DE/DX =    0.0                 !
 ! D3    D(3,1,2,8)            180.0            -DE/DX =    0.0                 !
 ! D4    D(4,1,2,6)            -60.0            -DE/DX =    0.0                 !
 ! D5    D(4,1,2,7)            180.0            -DE/DX =    0.0                 !
 ! D6    D(4,1,2,8)             60.0            -DE/DX =    0.0                 !
 ! D7    D(5,1,2,6)            180.0            -DE/DX =    0.0                 !
 ! D8    D(5,1,2,7)             60.0            -DE/DX =    0.0                 !
 ! D9    D(5,1,2,8)            -60.0            -DE/DX =    0.0                 !
 --------------------------------------------------------------------------------
 GradGradGradGradGradGradGradGradGradGradGradGradGradGradGradGradGradGrad

                          Input orientation:                          
 ---------------------------------------------------------------------
 Center     Atomic      Atomic             Coordinates (Angstroms)
 Number     Number       Type             X           Y           Z
 ---------------------------------------------------------------------
      1          6           0       -6.397023    0.651493   -0.000001
      2          6           0       -4.843687    0.571137    0.000001
      3          1           0       -6.770018    1.008952    0.974633
      4          1           0       -6.839793   -0.339872   -0.194850
      5          1           0       -6.752582    1.345990   -0.779786
      6          1           0       -4.488128   -0.123360    0.779786
      7          1           0       -4.400917    1.562502    0.194850
      8          1           0       -4.470692    0.213678   -0.974633
 ---------------------------------------------------------------------
                    Distance matrix (angstroms):
                    1          2          3          4          5
     1  C    0.000000
     2  C    1.555414   0.000000
     3  H    1.103093   2.202804   0.000000
     4  H    1.103093   2.202804   1.786585   0.000000
     5  H    1.103093   2.202804   1.786585   1.786585   0.000000
     6  H    2.202804   1.103093   2.554823   2.554823   3.117532
     7  H    2.202804   1.103093   2.554823   3.117532   2.554823
     8  H    2.202804   1.103093   3.117532   2.554823   2.554823
                    6          7          8
     6  H    0.000000
     7  H    1.786585   0.000000
     8  H    1.786585   1.786585   0.000000
 This structure is nearly, but not quite of a higher symmetry.
 Consider Symm=Loose if the higher symmetry is desired.
 Stoichiometry    C2H6
 Framework group  CI[X(C2H6)]
 Deg. of freedom     9
 Full point group                 CI      NOp   2
 Largest Abelian subgroup         CI      NOp   2
 Largest concise Abelian subgroup CI      NOp   2
                         Standard orientation:                         
 ---------------------------------------------------------------------
 Center     Atomic      Atomic             Coordinates (Angstroms)
 Number     Number       Type             X           Y           Z
 ---------------------------------------------------------------------
      1          6           0       -0.776668    0.040178   -0.000001
      2          6           0        0.776668   -0.040178    0.000001
      3          1           0       -1.149663    0.397637    0.974633
      4          1           0       -1.219438   -0.951187   -0.194850
      5          1           0       -1.132227    0.734675   -0.779786
      6          1           0        1.132227   -0.734675    0.779786
      7          1           0        1.219438    0.951187    0.194850
      8          1           0        1.149663   -0.397637   -0.974633
 ---------------------------------------------------------------------
 Rotational constants (GHZ):     78.5515136     19.4439415     19.4439415

 **********************************************************************

            Population analysis using the SCF density.

 **********************************************************************

 Orbital symmetries:
       Occupied  (AU) (AG) (AG) (AU) (AU) (AU) (AG) (AG) (AG)
       Virtual   (AU) (AU) (AU) (AG) (AU) (AG) (AG)
 The electronic state is 1-AG.
 Alpha  occ. eigenvalues --  -11.03691 -11.03657  -0.97097  -0.80481  -0.56342
 Alpha  occ. eigenvalues --   -0.56342  -0.46515  -0.45566  -0.45566
 Alpha virt. eigenvalues --    0.64189   0.64189   0.67203   0.71608   0.75403
 Alpha virt. eigenvalues --    0.77161   0.77161
          Condensed to atoms (all electrons):
               1          2          3          4          5          6
     1  C    4.719195   0.359212   0.380839   0.380839   0.380839  -0.019572
     2  C    0.359212   4.719195  -0.019572  -0.019572  -0.019572   0.380839
     3  H    0.380839  -0.019572   0.629535  -0.021361  -0.021361  -0.001896
     4  H    0.380839  -0.019572  -0.021361   0.629535  -0.021361  -0.001896
     5  H    0.380839  -0.019572  -0.021361  -0.021361   0.629535   0.001642
     6  H   -0.019572   0.380839  -0.001896  -0.001896   0.001642   0.629535
     7  H   -0.019572   0.380839  -0.001896   0.001642  -0.001896  -0.021361
     8  H   -0.019572   0.380839   0.001642  -0.001896  -0.001896  -0.021361
               7          8
     1  C   -0.019572  -0.019572
     2  C    0.380839   0.380839
     3  H   -0.001896   0.001642
     4  H    0.001642  -0.001896
     5  H   -0.001896  -0.001896
     6  H   -0.021361  -0.021361
     7  H    0.629535  -0.021361
     8  H   -0.021361   0.629535
 Mulliken charges:
               1
     1  C   -0.162206
     2  C   -0.162206
     3  H    0.054069
     4  H    0.054069
     5  H    0.054069
     6  H    0.054069
     7  H    0.054069
     8  H    0.054069
 Sum of Mulliken charges =   0.00000
 Mulliken charges with hydrogens summed into heavy atoms:
               1
     1  C    0.000000
     2  C    0.000000
 Electronic spatial extent (au):  <R**2>=            109.5748
 Charge=              0.0000 electrons
 Dipole moment (field-independent basis, Debye):
    X=              0.0000    Y=              0.0000    Z=              0.0000  Tot=              0.0000
 Quadrupole moment (field-independent basis, Debye-Ang):
   XX=            -14.4171   YY=            -14.0405   ZZ=            -14.0394
   XY=              0.0195   XZ=              0.0000   YZ=              0.0000
 Traceless Quadrupole moment (field-independent basis, Debye-Ang):
   XX=             -0.2514   YY=              0.1252   ZZ=              0.1262
   XY=              0.0195   XZ=              0.0000   YZ=              0.0000
 Octapole moment (field-independent basis, Debye-Ang**2):
  XXX=              0.0000  YYY=              0.0000  ZZZ=              0.0000  XYY=              0.0000
  XXY=              0.0000  XXZ=              0.0000  XZZ=              0.0000  YZZ=              0.0000
  YYZ=              0.0000  XYZ=              0.0000
 Hexadecapole moment (field-independent basis, Debye-Ang**3):
 XXXX=            -86.9880 YYYY=            -25.7604 ZZZZ=            -25.4056 XXXY=              1.7800
 XXXZ=              0.0052 YYYX=              2.4142 YYYZ=             -0.1004 ZZZX=             -0.6485
 ZZZY=              0.0335 XXYY=            -17.5178 XXZZ=            -17.6834 YYZZ=             -8.3884
 XXYZ=              0.0668 YYXZ=              0.6433 ZZXY=             -0.5362
 N-N= 4.169516508533D+01 E-N=-2.648719167193D+02  KE= 7.757764766268D+01
 Symmetry AG   KE= 4.033584198123D+01
 Symmetry AU   KE= 3.724180568145D+01
 1\1\GINC-N0288\FOpt\RMP2-FC\STO-3G\C2H6\GDAVIDS3\21-Feb-2017\0\\#n MP2
 /STO-3G Opt\\Ethane MP2 STO-3G\\0,1\C,-6.3970233254,0.6514925492,-0.00
 00006458\C,-4.8436866746,0.5711374508,0.0000006458\H,-6.7700181794,1.0
 0895247,0.974633437\H,-6.8397927771,-0.3398718249,-0.1948499959\H,-6.7
 525817192,1.3459902029,-0.7797862437\H,-4.4881282808,-0.1233602029,0.7
 797862437\H,-4.4009172229,1.5625018249,0.1948499959\H,-4.4706918206,0.
 21367753,-0.974633437\\Version=ES64L-G09RevE.01\State=1-AG\HF=-78.3045
 27\MP2=-78.4133318\RMSD=1.586e-10\RMSF=6.553e-05\Dipole=0.,0.,0.\PG=CI
  [X(C2H6)]\\@


 YOU KNOW YOU'VE SPOKEN TOO LONG WHEN THE AUDIENCE STOPS LOOKING AT
 THEIR WATCHES AND STARTS SHAKING THEM.
 Job cpu time:       0 days  0 hours  0 minutes 31.2 seconds.
 File lengths (MBytes):  RWF=      5 Int=      0 D2E=      0 Chk=      1 Scr=      1
 Normal termination of Gaussian 09 at Tue Feb 21 17:42:06 2017.
