 Entering Gaussian System, Link 0=g09
 Input=Ethane_MP2_6-31Gdp.com
 Output=Ethane_MP2_6-31Gdp.log
 Initial command:
 /sw/contrib/gaussian/g09/E01/g09/l1.exe "/scr/Gau-13802.inp" -scrdir="/scr/"
 Entering Link 1 = /sw/contrib/gaussian/g09/E01/g09/l1.exe PID=     13803.
  
 Copyright (c) 1988,1990,1992,1993,1995,1998,2003,2009,2015,
            Gaussian, Inc.  All Rights Reserved.
  
 This is part of the Gaussian(R) 09 program.  It is based on
 the Gaussian(R) 03 system (copyright 2003, Gaussian, Inc.),
 the Gaussian(R) 98 system (copyright 1998, Gaussian, Inc.),
 the Gaussian(R) 94 system (copyright 1995, Gaussian, Inc.),
 the Gaussian 92(TM) system (copyright 1992, Gaussian, Inc.),
 the Gaussian 90(TM) system (copyright 1990, Gaussian, Inc.),
 the Gaussian 88(TM) system (copyright 1988, Gaussian, Inc.),
 the Gaussian 86(TM) system (copyright 1986, Carnegie Mellon
 University), and the Gaussian 82(TM) system (copyright 1983,
 Carnegie Mellon University). Gaussian is a federally registered
 trademark of Gaussian, Inc.
  
 This software contains proprietary and confidential information,
 including trade secrets, belonging to Gaussian, Inc.
  
 This software is provided under written license and may be
 used, copied, transmitted, or stored only in accord with that
 written license.
  
 The following legend is applicable only to US Government
 contracts under FAR:
  
                    RESTRICTED RIGHTS LEGEND
  
 Use, reproduction and disclosure by the US Government is
 subject to restrictions as set forth in subparagraphs (a)
 and (c) of the Commercial Computer Software - Restricted
 Rights clause in FAR 52.227-19.
  
 Gaussian, Inc.
 340 Quinnipiac St., Bldg. 40, Wallingford CT 06492
  
  
 ---------------------------------------------------------------
 Warning -- This program may not be used in any manner that
 competes with the business of Gaussian, Inc. or will provide
 assistance to any competitor of Gaussian, Inc.  The licensee
 of this program is prohibited from giving any competitor of
 Gaussian, Inc. access to this program.  By using this program,
 the user acknowledges that Gaussian, Inc. is engaged in the
 business of creating and licensing software in the field of
 computational chemistry and represents and warrants to the
 licensee that it is not a competitor of Gaussian, Inc. and that
 it will not use this program in any manner prohibited above.
 ---------------------------------------------------------------
  

 Cite this work as:
 Gaussian 09, Revision E.01,
 M. J. Frisch, G. W. Trucks, H. B. Schlegel, G. E. Scuseria, 
 M. A. Robb, J. R. Cheeseman, G. Scalmani, V. Barone, B. Mennucci, 
 G. A. Petersson, H. Nakatsuji, M. Caricato, X. Li, H. P. Hratchian, 
 A. F. Izmaylov, J. Bloino, G. Zheng, J. L. Sonnenberg, M. Hada, 
 M. Ehara, K. Toyota, R. Fukuda, J. Hasegawa, M. Ishida, T. Nakajima, 
 Y. Honda, O. Kitao, H. Nakai, T. Vreven, J. A. Montgomery, Jr., 
 J. E. Peralta, F. Ogliaro, M. Bearpark, J. J. Heyd, E. Brothers, 
 K. N. Kudin, V. N. Staroverov, T. Keith, R. Kobayashi, J. Normand, 
 K. Raghavachari, A. Rendell, J. C. Burant, S. S. Iyengar, J. Tomasi, 
 M. Cossi, N. Rega, J. M. Millam, M. Klene, J. E. Knox, J. B. Cross, 
 V. Bakken, C. Adamo, J. Jaramillo, R. Gomperts, R. E. Stratmann, 
 O. Yazyev, A. J. Austin, R. Cammi, C. Pomelli, J. W. Ochterski, 
 R. L. Martin, K. Morokuma, V. G. Zakrzewski, G. A. Voth, 
 P. Salvador, J. J. Dannenberg, S. Dapprich, A. D. Daniels, 
 O. Farkas, J. B. Foresman, J. V. Ortiz, J. Cioslowski, 
 and D. J. Fox, Gaussian, Inc., Wallingford CT, 2013.
 
 ******************************************
 Gaussian 09:  ES64L-G09RevE.01 30-Nov-2015
                21-Feb-2017 
 ******************************************
 %NProcShared=8
 Will use up to    8 processors via shared memory.
 ---------------------
 #n MP2/6-31G(d,p) Opt
 ---------------------
 1/18=20,19=15,38=1/1,3;
 2/9=110,12=2,17=6,18=5,40=1/2;
 3/5=1,6=6,7=101,11=9,16=1,25=1,30=1,71=1/1,2,3;
 4//1;
 5/5=2,38=5/2;
 8/6=4,10=2/1;
 9/15=2,16=-3/6;
 10/5=1/2;
 6/7=2,8=2,9=2,10=2/1;
 7/12=2/1,2,3,16;
 1/18=20,19=15/3(2);
 2/9=110/2;
 99//99;
 2/9=110/2;
 3/5=1,6=6,7=101,11=9,16=1,25=1,30=1,71=1/1,2,3;
 4/5=5,16=3,69=1/1;
 5/5=2,38=5/2;
 8/6=4,10=2/1;
 9/15=2,16=-3/6;
 10/5=1/2;
 7/12=2/1,2,3,16;
 1/18=20,19=15/3(-8);
 2/9=110/2;
 6/7=2,8=2,9=2,10=2/1;
 99//99;
 ------------------
 Ethane MP2 6-31Gdp
 ------------------
 Symbolic Z-matrix:
 Charge =  0 Multiplicity = 1
 C                    -6.3877    0.65101   0. 
 C                    -4.85301   0.57162   0. 
 H                    -6.75069   1.00542   0.96733 
 H                    -6.81994  -0.3333   -0.19339 
 H                    -6.73338   1.33993  -0.77394 
 H                    -4.50733  -0.1173    0.77394 
 H                    -4.42077   1.55593   0.19339 
 H                    -4.49002   0.21721  -0.96733 
 

 GradGradGradGradGradGradGradGradGradGradGradGradGradGradGradGradGradGrad
 Berny optimization.
 Initialization pass.
                           ----------------------------
                           !    Initial Parameters    !
                           ! (Angstroms and Degrees)  !
 --------------------------                            --------------------------
 ! Name  Definition              Value          Derivative Info.                !
 --------------------------------------------------------------------------------
 ! R1    R(1,2)                  1.5367         estimate D2E/DX2                !
 ! R2    R(1,3)                  1.0923         estimate D2E/DX2                !
 ! R3    R(1,4)                  1.0923         estimate D2E/DX2                !
 ! R4    R(1,5)                  1.0923         estimate D2E/DX2                !
 ! R5    R(2,6)                  1.0923         estimate D2E/DX2                !
 ! R6    R(2,7)                  1.0923         estimate D2E/DX2                !
 ! R7    R(2,8)                  1.0923         estimate D2E/DX2                !
 ! A1    A(2,1,3)              110.4041         estimate D2E/DX2                !
 ! A2    A(2,1,4)              110.4039         estimate D2E/DX2                !
 ! A3    A(2,1,5)              110.4038         estimate D2E/DX2                !
 ! A4    A(3,1,4)              108.5227         estimate D2E/DX2                !
 ! A5    A(3,1,5)              108.5224         estimate D2E/DX2                !
 ! A6    A(4,1,5)              108.5227         estimate D2E/DX2                !
 ! A7    A(1,2,6)              110.4038         estimate D2E/DX2                !
 ! A8    A(1,2,7)              110.4039         estimate D2E/DX2                !
 ! A9    A(1,2,8)              110.4041         estimate D2E/DX2                !
 ! A10   A(6,2,7)              108.5227         estimate D2E/DX2                !
 ! A11   A(6,2,8)              108.5224         estimate D2E/DX2                !
 ! A12   A(7,2,8)              108.5227         estimate D2E/DX2                !
 ! D1    D(3,1,2,6)             60.0002         estimate D2E/DX2                !
 ! D2    D(3,1,2,7)            -59.9998         estimate D2E/DX2                !
 ! D3    D(3,1,2,8)            180.0            estimate D2E/DX2                !
 ! D4    D(4,1,2,6)            -60.0            estimate D2E/DX2                !
 ! D5    D(4,1,2,7)            180.0            estimate D2E/DX2                !
 ! D6    D(4,1,2,8)             59.9998         estimate D2E/DX2                !
 ! D7    D(5,1,2,6)            180.0            estimate D2E/DX2                !
 ! D8    D(5,1,2,7)             60.0            estimate D2E/DX2                !
 ! D9    D(5,1,2,8)            -60.0002         estimate D2E/DX2                !
 --------------------------------------------------------------------------------
 Trust Radius=3.00D-01 FncErr=1.00D-07 GrdErr=1.00D-07
 Number of steps in this run=     38 maximum allowed number of steps=    100.
 GradGradGradGradGradGradGradGradGradGradGradGradGradGradGradGradGradGrad

                          Input orientation:                          
 ---------------------------------------------------------------------
 Center     Atomic      Atomic             Coordinates (Angstroms)
 Number     Number       Type             X           Y           Z
 ---------------------------------------------------------------------
      1          6           0       -6.387700    0.651010    0.000000
      2          6           0       -4.853010    0.571620    0.000000
      3          1           0       -6.750690    1.005420    0.967330
      4          1           0       -6.819940   -0.333300   -0.193390
      5          1           0       -6.733380    1.339930   -0.773940
      6          1           0       -4.507330   -0.117300    0.773940
      7          1           0       -4.420770    1.555930    0.193390
      8          1           0       -4.490020    0.217210   -0.967330
 ---------------------------------------------------------------------
                    Distance matrix (angstroms):
                    1          2          3          4          5
     1  C    0.000000
     2  C    1.536742   0.000000
     3  H    1.092289   2.173729   0.000000
     4  H    1.092290   2.173728   1.773200   0.000000
     5  H    1.092286   2.173724   1.773194   1.773198   0.000000
     6  H    2.173724   1.092286   2.516061   2.516058   3.078108
     7  H    2.173728   1.092290   2.516063   3.078117   2.516058
     8  H    2.173729   1.092289   3.078118   2.516063   2.516061
                    6          7          8
     6  H    0.000000
     7  H    1.773198   0.000000
     8  H    1.773194   1.773200   0.000000
 This structure is nearly, but not quite of a higher symmetry.
 Consider Symm=Loose if the higher symmetry is desired.
 Stoichiometry    C2H6
 Framework group  CI[X(C2H6)]
 Deg. of freedom     9
 Full point group                 CI      NOp   2
 Largest Abelian subgroup         CI      NOp   2
 Largest concise Abelian subgroup CI      NOp   2
                         Standard orientation:                         
 ---------------------------------------------------------------------
 Center     Atomic      Atomic             Coordinates (Angstroms)
 Number     Number       Type             X           Y           Z
 ---------------------------------------------------------------------
      1          6           0       -0.767345    0.039695    0.000000
      2          6           0        0.767345   -0.039695    0.000000
      3          1           0       -1.130335    0.394105    0.967330
      4          1           0       -1.199585   -0.944615   -0.193390
      5          1           0       -1.113025    0.728615   -0.773940
      6          1           0        1.113025   -0.728615    0.773940
      7          1           0        1.199585    0.944615    0.193390
      8          1           0        1.130335   -0.394105   -0.967330
 ---------------------------------------------------------------------
 Rotational constants (GHZ):     79.7421566     19.9565168     19.9564985
 Standard basis: 6-31G(d,p) (6D, 7F)
 There are    30 symmetry adapted cartesian basis functions of AG  symmetry.
 There are    30 symmetry adapted cartesian basis functions of AU  symmetry.
 There are    30 symmetry adapted basis functions of AG  symmetry.
 There are    30 symmetry adapted basis functions of AU  symmetry.
    60 basis functions,    98 primitive gaussians,    60 cartesian basis functions
     9 alpha electrons        9 beta electrons
       nuclear repulsion energy        42.1695770054 Hartrees.
 NAtoms=    8 NActive=    8 NUniq=    4 SFac= 4.00D+00 NAtFMM=   60 NAOKFM=F Big=F
 Integral buffers will be    131072 words long.
 Raffenetti 1 integral format.
 Two-electron integral symmetry is turned on.
 One-electron integrals computed using PRISM.
 NBasis=    60 RedAO= T EigKep=  5.73D-03  NBF=    30    30
 NBsUse=    60 1.00D-06 EigRej= -1.00D+00 NBFU=    30    30
 ExpMin= 1.61D-01 ExpMax= 3.05D+03 ExpMxC= 4.57D+02 IAcc=1 IRadAn=         1 AccDes= 0.00D+00
 Harris functional with IExCor=  205 and IRadAn=       1 diagonalized for initial guess.
 HarFok:  IExCor=  205 AccDes= 0.00D+00 IRadAn=         1 IDoV= 1 UseB2=F ITyADJ=14
 ICtDFT=  3500011 ScaDFX=  1.000000  1.000000  1.000000  1.000000
 FoFCou: FMM=F IPFlag=           0 FMFlag=      100000 FMFlg1=           0
         NFxFlg=           0 DoJE=T BraDBF=F KetDBF=T FulRan=T
         wScrn=  0.000000 ICntrl=     500 IOpCl=  0 I1Cent=   200000004 NGrid=           0
         NMat0=    1 NMatS0=      1 NMatT0=    0 NMatD0=    1 NMtDS0=    0 NMtDT0=    0
 Petite list used in FoFCou.
 Initial guess orbital symmetries:
       Occupied  (AG) (AU) (AG) (AU) (AU) (AU) (AG) (AG) (AG)
       Virtual   (AG) (AU) (AU) (AU) (AG) (AG) (AU) (AG) (AU) (AU)
                 (AG) (AG) (AU) (AU) (AU) (AG) (AG) (AG) (AU) (AG)
                 (AU) (AU) (AU) (AG) (AG) (AG) (AU) (AU) (AU) (AG)
                 (AG) (AG) (AU) (AU) (AU) (AG) (AG) (AG) (AU) (AU)
                 (AU) (AG) (AG) (AG) (AU) (AG) (AG) (AU) (AU) (AG)
                 (AU)
 The electronic state of the initial guess is 1-AG.
 Keep R1 ints in memory in symmetry-blocked form, NReq=2557303.
 Requested convergence on RMS density matrix=1.00D-08 within 128 cycles.
 Requested convergence on MAX density matrix=1.00D-06.
 Requested convergence on             energy=1.00D-06.
 No special actions if energy rises.
 SCF Done:  E(RHF) =  -79.2378303988     A.U. after    9 cycles
            NFock=  9  Conv=0.25D-08     -V/T= 2.0014
 ExpMin= 1.61D-01 ExpMax= 3.05D+03 ExpMxC= 4.57D+02 IAcc=3 IRadAn=         5 AccDes= 0.00D+00
 HarFok:  IExCor=  205 AccDes= 0.00D+00 IRadAn=         5 IDoV=-2 UseB2=F ITyADJ=14
 ICtDFT= 12500011 ScaDFX=  1.000000  1.000000  1.000000  1.000000
 Range of M.O.s used for correlation:     3    60
 NBasis=    60 NAE=     9 NBE=     9 NFC=     2 NFV=     0
 NROrb=     58 NOA=     7 NOB=     7 NVA=    51 NVB=    51
 Fully direct method using O(ONN) memory.
 JobTyp=1 Pass  1:  I=   3 to   9 NPSUse=  2 ParTrn=F ParDer=T DoDerP=T.
 Spin components of T(2) and E(2):
     alpha-alpha T2 =       0.1020082515D-01 E2=     -0.3071689674D-01
     alpha-beta  T2 =       0.7638443793D-01 E2=     -0.2438752452D+00
     beta-beta   T2 =       0.1020082515D-01 E2=     -0.3071689674D-01
 ANorm=    0.1047275555D+01
 E2 =    -0.3053090387D+00 EUMP2 =    -0.79543139437521D+02
          IDoAtm=11111111
          Differentiating once with respect to electric field.
                with respect to dipole field.
          Differentiating once with respect to nuclear coordinates.
 Keep R1 ints in memory in symmetry-blocked form, NReq=2539264.
          There are     1 degrees of freedom in the 1st order CPHF.  IDoFFX=0 NUNeed=     1.
 LinEq1:  Iter=  0 NonCon=     1 RMS=3.28D-03 Max=2.35D-02 NDo=     1
 AX will form     1 AO Fock derivatives at one time.
 LinEq1:  Iter=  1 NonCon=     1 RMS=1.11D-03 Max=1.35D-02 NDo=     1
 LinEq1:  Iter=  2 NonCon=     1 RMS=1.70D-04 Max=1.61D-03 NDo=     1
 LinEq1:  Iter=  3 NonCon=     1 RMS=2.35D-05 Max=2.08D-04 NDo=     1
 LinEq1:  Iter=  4 NonCon=     1 RMS=2.32D-06 Max=1.63D-05 NDo=     1
 LinEq1:  Iter=  5 NonCon=     1 RMS=1.95D-07 Max=1.44D-06 NDo=     1
 LinEq1:  Iter=  6 NonCon=     1 RMS=1.30D-08 Max=8.23D-08 NDo=     1
 LinEq1:  Iter=  7 NonCon=     1 RMS=7.68D-10 Max=6.62D-09 NDo=     1
 LinEq1:  Iter=  8 NonCon=     0 RMS=7.01D-11 Max=7.65D-10 NDo=     1
 Linear equations converged to 1.000D-10 1.000D-09 after     8 iterations.
 End of Minotr F.D. properties file   721 does not exist.
 End of Minotr F.D. properties file   722 does not exist.
 End of Minotr F.D. properties file   788 does not exist.

 **********************************************************************

            Population analysis using the SCF density.

 **********************************************************************

 Orbital symmetries:
       Occupied  (AG) (AU) (AG) (AU) (AU) (AU) (AG) (AG) (AG)
       Virtual   (AG) (AU) (AU) (AU) (AG) (AG) (AU) (AG) (AU) (AU)
                 (AG) (AG) (AU) (AU) (AU) (AG) (AG) (AG) (AU) (AG)
                 (AU) (AU) (AU) (AG) (AG) (AG) (AU) (AG) (AU) (AU)
                 (AG) (AG) (AU) (AU) (AU) (AG) (AG) (AG) (AU) (AU)
                 (AU) (AG) (AG) (AG) (AU) (AG) (AG) (AU) (AU) (AG)
                 (AU)
 The electronic state is 1-AG.
 Alpha  occ. eigenvalues --  -11.21371 -11.21314  -1.01552  -0.83901  -0.59611
 Alpha  occ. eigenvalues --   -0.59611  -0.50158  -0.48668  -0.48668
 Alpha virt. eigenvalues --    0.24076   0.30274   0.31715   0.31715   0.33549
 Alpha virt. eigenvalues --    0.33549   0.40771   0.70614   0.73992   0.73992
 Alpha virt. eigenvalues --    0.82873   0.82873   0.93023   1.12862   1.12862
 Alpha virt. eigenvalues --    1.15899   1.16534   1.16534   1.22007   1.27624
 Alpha virt. eigenvalues --    1.58960   1.58960   1.68525   1.97160   1.97160
 Alpha virt. eigenvalues --    2.17104   2.35654   2.35730   2.38452   2.38453
 Alpha virt. eigenvalues --    2.39345   2.39345   2.58748   2.58748   2.65625
 Alpha virt. eigenvalues --    2.81238   2.81238   2.99890   3.08080   3.14051
 Alpha virt. eigenvalues --    3.14051   3.25787   3.25788   3.52056   3.62077
 Alpha virt. eigenvalues --    3.75836   3.75837   3.90385   3.90386   4.74581
 Alpha virt. eigenvalues --    5.00185
          Condensed to atoms (all electrons):
               1          2          3          4          5          6
     1  C    4.910666   0.329749   0.403543   0.403543   0.403543  -0.039300
     2  C    0.329749   4.910666  -0.039299  -0.039299  -0.039300   0.403543
     3  H    0.403543  -0.039299   0.587632  -0.030333  -0.030334  -0.003251
     4  H    0.403543  -0.039299  -0.030333   0.587632  -0.030333  -0.003251
     5  H    0.403543  -0.039300  -0.030334  -0.030333   0.587632   0.004243
     6  H   -0.039300   0.403543  -0.003251  -0.003251   0.004243   0.587632
     7  H   -0.039299   0.403543  -0.003251   0.004243  -0.003251  -0.030333
     8  H   -0.039299   0.403543   0.004243  -0.003251  -0.003251  -0.030334
               7          8
     1  C   -0.039299  -0.039299
     2  C    0.403543   0.403543
     3  H   -0.003251   0.004243
     4  H    0.004243  -0.003251
     5  H   -0.003251  -0.003251
     6  H   -0.030333  -0.030334
     7  H    0.587632  -0.030333
     8  H   -0.030333   0.587632
 Mulliken charges:
               1
     1  C   -0.333148
     2  C   -0.333148
     3  H    0.111049
     4  H    0.111049
     5  H    0.111050
     6  H    0.111050
     7  H    0.111049
     8  H    0.111049
 Sum of Mulliken charges =   0.00000
 Mulliken charges with hydrogens summed into heavy atoms:
               1
     1  C    0.000000
     2  C    0.000000
 Electronic spatial extent (au):  <R**2>=            109.8522
 Charge=              0.0000 electrons
 Dipole moment (field-independent basis, Debye):
    X=              0.0000    Y=              0.0000    Z=              0.0000  Tot=              0.0000
 Quadrupole moment (field-independent basis, Debye-Ang):
   XX=            -15.6696   YY=            -14.8970   ZZ=            -14.8949
   XY=              0.0401   XZ=              0.0000   YZ=              0.0000
 Traceless Quadrupole moment (field-independent basis, Debye-Ang):
   XX=             -0.5158   YY=              0.2569   ZZ=              0.2589
   XY=              0.0401   XZ=              0.0000   YZ=              0.0000
 Octapole moment (field-independent basis, Debye-Ang**2):
  XXX=              0.0000  YYY=              0.0000  ZZZ=              0.0000  XYY=              0.0000
  XXY=              0.0000  XXZ=              0.0000  XZZ=              0.0000  YZZ=              0.0000
  YYZ=              0.0000  XYZ=              0.0000
 Hexadecapole moment (field-independent basis, Debye-Ang**3):
 XXXX=            -93.8838 YYYY=            -29.5653 ZZZZ=            -29.1809 XXXY=              1.8452
 XXXZ=              0.0057 YYYX=              2.6046 YYYZ=             -0.1098 ZZZX=             -0.7093
 ZZZY=              0.0367 XXYY=            -19.3909 XXZZ=            -19.5760 YYZZ=             -9.6387
 XXYZ=              0.0731 YYXZ=              0.7036 ZZXY=             -0.5983
 N-N= 4.216957700541D+01 E-N=-2.680485460685D+02  KE= 7.913082992430D+01
 Symmetry AG   KE= 4.105186024683D+01
 Symmetry AU   KE= 3.807896967747D+01
 Calling FoFJK, ICntrl=  10002127 FMM=F ISym2X=1 I1Cent= 0 IOpClX= 0 NMat=1 NMatS=1 NMatT=0.
 ***** Axes restored to original set *****
 -------------------------------------------------------------------
 Center     Atomic                   Forces (Hartrees/Bohr)
 Number     Number              X              Y              Z
 -------------------------------------------------------------------
      1        6           0.007076760   -0.000367381    0.000000770
      2        6          -0.007076760    0.000367381   -0.000000770
      3        1          -0.000719579   -0.000979556   -0.002929619
      4        1          -0.000509969    0.003075885    0.000585859
      5        1          -0.000773155   -0.001991299    0.002342395
      6        1           0.000773155    0.001991299   -0.002342395
      7        1           0.000509969   -0.003075885   -0.000585859
      8        1           0.000719579    0.000979556    0.002929619
 -------------------------------------------------------------------
 Cartesian Forces:  Max     0.007076760 RMS     0.002588270

 GradGradGradGradGradGradGradGradGradGradGradGradGradGradGradGradGradGrad
 Berny optimization.
 FormGI is forming the generalized inverse of G from B-inverse, IUseBI=4.
 Internal  Forces:  Max     0.005080834 RMS     0.001933666
 Search for a local minimum.
 Step number   1 out of a maximum of   38
 All quantities printed in internal units (Hartrees-Bohrs-Radians)
 Mixed Optimization -- RFO/linear search
 Second derivative matrix not updated -- first step.
 ITU=  0
     Eigenvalues ---    0.00280   0.05575   0.05575   0.05575   0.05575
     Eigenvalues ---    0.16000   0.16000   0.16000   0.16000   0.16000
     Eigenvalues ---    0.16000   0.28809   0.34549   0.34549   0.34549
     Eigenvalues ---    0.34549   0.34550   0.34550
 RFO step:  Lambda=-4.37876713D-04 EMin= 2.79920382D-03
 Linear search not attempted -- first point.
 Iteration  1 RMS(Cart)=  0.00836711 RMS(Int)=  0.00008600
 Iteration  2 RMS(Cart)=  0.00009972 RMS(Int)=  0.00003623
 Iteration  3 RMS(Cart)=  0.00000001 RMS(Int)=  0.00003623
 ClnCor:  largest displacement from symmetrization is 1.09D-08 for atom     8.
 Variable       Old X    -DE/DX   Delta X   Delta X   Delta X     New X
                                 (Linear)    (Quad)   (Total)
    R1        2.90402  -0.00508   0.00000  -0.01761  -0.01761   2.88641
    R2        2.06413  -0.00267   0.00000  -0.00773  -0.00773   2.05640
    R3        2.06413  -0.00267   0.00000  -0.00773  -0.00773   2.05640
    R4        2.06412  -0.00267   0.00000  -0.00772  -0.00772   2.05640
    R5        2.06412  -0.00267   0.00000  -0.00772  -0.00772   2.05640
    R6        2.06413  -0.00267   0.00000  -0.00773  -0.00773   2.05640
    R7        2.06413  -0.00267   0.00000  -0.00773  -0.00773   2.05640
    A1        1.92691   0.00170   0.00000   0.01061   0.01056   1.93747
    A2        1.92691   0.00170   0.00000   0.01062   0.01056   1.93747
    A3        1.92691   0.00170   0.00000   0.01062   0.01056   1.93747
    A4        1.89408  -0.00176   0.00000  -0.01098  -0.01103   1.88305
    A5        1.89407  -0.00176   0.00000  -0.01097  -0.01103   1.88305
    A6        1.89408  -0.00176   0.00000  -0.01098  -0.01103   1.88305
    A7        1.92691   0.00170   0.00000   0.01062   0.01056   1.93747
    A8        1.92691   0.00170   0.00000   0.01062   0.01056   1.93747
    A9        1.92691   0.00170   0.00000   0.01061   0.01056   1.93747
   A10        1.89408  -0.00176   0.00000  -0.01098  -0.01103   1.88305
   A11        1.89407  -0.00176   0.00000  -0.01097  -0.01103   1.88305
   A12        1.89408  -0.00176   0.00000  -0.01098  -0.01103   1.88305
    D1        1.04720   0.00000   0.00000   0.00000   0.00000   1.04720
    D2       -1.04719   0.00000   0.00000   0.00000   0.00000  -1.04720
    D3        3.14159   0.00000   0.00000   0.00000   0.00000   3.14159
    D4       -1.04720   0.00000   0.00000   0.00000   0.00000  -1.04720
    D5        3.14159   0.00000   0.00000   0.00000   0.00000   3.14159
    D6        1.04719   0.00000   0.00000   0.00000   0.00000   1.04720
    D7        3.14159   0.00000   0.00000   0.00000   0.00000   3.14159
    D8        1.04720   0.00000   0.00000   0.00000   0.00000   1.04720
    D9       -1.04720   0.00000   0.00000   0.00000   0.00000  -1.04720
         Item               Value     Threshold  Converged?
 Maximum Force            0.005081     0.000450     NO 
 RMS     Force            0.001934     0.000300     NO 
 Maximum Displacement     0.015091     0.001800     NO 
 RMS     Displacement     0.008360     0.001200     NO 
 Predicted change in Energy=-2.193890D-04
 GradGradGradGradGradGradGradGradGradGradGradGradGradGradGradGradGradGrad

                          Input orientation:                          
 ---------------------------------------------------------------------
 Center     Atomic      Atomic             Coordinates (Angstroms)
 Number     Number       Type             X           Y           Z
 ---------------------------------------------------------------------
      1          6           0       -6.383047    0.650770   -0.000001
      2          6           0       -4.857663    0.571860    0.000001
      3          1           0       -6.755481    1.003078    0.959869
      4          1           0       -6.824198   -0.325314   -0.191898
      5          1           0       -6.738309    1.335011   -0.767974
      6          1           0       -4.502401   -0.112381    0.767974
      7          1           0       -4.416512    1.547944    0.191898
      8          1           0       -4.485229    0.219552   -0.959869
 ---------------------------------------------------------------------
                    Distance matrix (angstroms):
                    1          2          3          4          5
     1  C    0.000000
     2  C    1.527424   0.000000
     3  H    1.088200   2.170025   0.000000
     4  H    1.088200   2.170025   1.759522   0.000000
     5  H    1.088200   2.170026   1.759522   1.759522   0.000000
     6  H    2.170026   1.088200   2.521396   2.521396   3.074632
     7  H    2.170025   1.088200   2.521395   3.074630   2.521396
     8  H    2.170025   1.088200   3.074630   2.521395   2.521396
                    6          7          8
     6  H    0.000000
     7  H    1.759522   0.000000
     8  H    1.759522   1.759522   0.000000
 Stoichiometry    C2H6
 Framework group  CI[X(C2H6)]
 Deg. of freedom     9
 Full point group                 CI      NOp   2
 Largest Abelian subgroup         CI      NOp   2
 Largest concise Abelian subgroup CI      NOp   2
                         Standard orientation:                         
 ---------------------------------------------------------------------
 Center     Atomic      Atomic             Coordinates (Angstroms)
 Number     Number       Type             X           Y           Z
 ---------------------------------------------------------------------
      1          6           0       -0.762692    0.039455   -0.000001
      2          6           0        0.762692   -0.039455    0.000001
      3          1           0       -1.135126    0.391763    0.959869
      4          1           0       -1.203843   -0.936629   -0.191898
      5          1           0       -1.117954    0.723696   -0.767974
      6          1           0        1.117954   -0.723696    0.767974
      7          1           0        1.203843    0.936629    0.191898
      8          1           0        1.135126   -0.391763   -0.959869
 ---------------------------------------------------------------------
 Rotational constants (GHZ):     80.9864963     20.0794346     20.0794326
 Standard basis: 6-31G(d,p) (6D, 7F)
 There are    30 symmetry adapted cartesian basis functions of AG  symmetry.
 There are    30 symmetry adapted cartesian basis functions of AU  symmetry.
 There are    30 symmetry adapted basis functions of AG  symmetry.
 There are    30 symmetry adapted basis functions of AU  symmetry.
    60 basis functions,    98 primitive gaussians,    60 cartesian basis functions
     9 alpha electrons        9 beta electrons
       nuclear repulsion energy        42.3375102350 Hartrees.
 NAtoms=    8 NActive=    8 NUniq=    4 SFac= 4.00D+00 NAtFMM=   60 NAOKFM=F Big=F
 Integral buffers will be    131072 words long.
 Raffenetti 1 integral format.
 Two-electron integral symmetry is turned on.
 One-electron integrals computed using PRISM.
 NBasis=    60 RedAO= T EigKep=  5.66D-03  NBF=    30    30
 NBsUse=    60 1.00D-06 EigRej= -1.00D+00 NBFU=    30    30
 Initial guess from the checkpoint file:  "/scr/Gau-13803.chk"
 B after Tr=     0.000000    0.000000    0.000000
         Rot=    1.000000    0.000000    0.000000    0.000000 Ang=   0.00 deg.
 Initial guess orbital symmetries:
       Occupied  (AG) (AU) (AG) (AU) (AU) (AU) (AG) (AG) (AG)
       Virtual   (AG) (AG) (AG) (AG) (AG) (AG) (AG) (AG) (AG) (AG)
                 (AG) (AG) (AG) (AG) (AG) (AG) (AG) (AG) (AG) (AG)
                 (AG) (AG) (AG) (AG) (AG) (AU) (AU) (AU) (AU) (AU)
                 (AU) (AU) (AU) (AU) (AU) (AU) (AU) (AU) (AU) (AU)
                 (AU) (AU) (AU) (AU) (AU) (AU) (AU) (AU) (AU) (AU)
                 (AU)
 Keep R1 ints in memory in symmetry-blocked form, NReq=2557331.
 Requested convergence on RMS density matrix=1.00D-08 within 128 cycles.
 Requested convergence on MAX density matrix=1.00D-06.
 Requested convergence on             energy=1.00D-06.
 No special actions if energy rises.
 SCF Done:  E(RHF) =  -79.2381963556     A.U. after    8 cycles
            NFock=  8  Conv=0.11D-08     -V/T= 2.0008
 ExpMin= 1.61D-01 ExpMax= 3.05D+03 ExpMxC= 4.57D+02 IAcc=3 IRadAn=         5 AccDes= 0.00D+00
 HarFok:  IExCor=  205 AccDes= 0.00D+00 IRadAn=         5 IDoV=-2 UseB2=F ITyADJ=14
 ICtDFT= 12500011 ScaDFX=  1.000000  1.000000  1.000000  1.000000
 Range of M.O.s used for correlation:     3    60
 NBasis=    60 NAE=     9 NBE=     9 NFC=     2 NFV=     0
 NROrb=     58 NOA=     7 NOB=     7 NVA=    51 NVB=    51
 Fully direct method using O(ONN) memory.
 JobTyp=1 Pass  1:  I=   3 to   9 NPSUse=  2 ParTrn=F ParDer=T DoDerP=T.
 Spin components of T(2) and E(2):
     alpha-alpha T2 =       0.1017554657D-01 E2=     -0.3075387717D-01
     alpha-beta  T2 =       0.7598263208D-01 E2=     -0.2436820312D+00
     beta-beta   T2 =       0.1017554657D-01 E2=     -0.3075387717D-01
 ANorm=    0.1047059561D+01
 E2 =    -0.3051897856D+00 EUMP2 =    -0.79543386141215D+02
          IDoAtm=11111111
          Differentiating once with respect to electric field.
                with respect to dipole field.
          Differentiating once with respect to nuclear coordinates.
 Keep R1 ints in memory in symmetry-blocked form, NReq=2539264.
          There are     1 degrees of freedom in the 1st order CPHF.  IDoFFX=0 NUNeed=     1.
 LinEq1:  Iter=  0 NonCon=     1 RMS=3.25D-03 Max=2.30D-02 NDo=     1
 AX will form     1 AO Fock derivatives at one time.
 LinEq1:  Iter=  1 NonCon=     1 RMS=1.10D-03 Max=1.37D-02 NDo=     1
 LinEq1:  Iter=  2 NonCon=     1 RMS=1.73D-04 Max=1.64D-03 NDo=     1
 LinEq1:  Iter=  3 NonCon=     1 RMS=2.30D-05 Max=1.95D-04 NDo=     1
 LinEq1:  Iter=  4 NonCon=     1 RMS=2.30D-06 Max=1.58D-05 NDo=     1
 LinEq1:  Iter=  5 NonCon=     1 RMS=1.97D-07 Max=1.48D-06 NDo=     1
 LinEq1:  Iter=  6 NonCon=     1 RMS=1.37D-08 Max=8.42D-08 NDo=     1
 LinEq1:  Iter=  7 NonCon=     1 RMS=1.04D-09 Max=1.42D-08 NDo=     1
 LinEq1:  Iter=  8 NonCon=     0 RMS=9.76D-11 Max=8.70D-10 NDo=     1
 Linear equations converged to 1.000D-10 1.000D-09 after     8 iterations.
 End of Minotr F.D. properties file   721 does not exist.
 End of Minotr F.D. properties file   722 does not exist.
 End of Minotr F.D. properties file   788 does not exist.
 Calling FoFJK, ICntrl=  10002127 FMM=F ISym2X=1 I1Cent= 0 IOpClX= 0 NMat=1 NMatS=1 NMatT=0.
 ***** Axes restored to original set *****
 -------------------------------------------------------------------
 Center     Atomic                   Forces (Hartrees/Bohr)
 Number     Number              X              Y              Z
 -------------------------------------------------------------------
      1        6           0.003062222   -0.000158404    0.000000181
      2        6          -0.003062222    0.000158404   -0.000000181
      3        1          -0.000446928    0.000105800    0.000238222
      4        1          -0.000463969   -0.000223948   -0.000047680
      5        1          -0.000442457    0.000188042   -0.000190514
      6        1           0.000442457   -0.000188042    0.000190514
      7        1           0.000463969    0.000223948    0.000047680
      8        1           0.000446928   -0.000105800   -0.000238222
 -------------------------------------------------------------------
 Cartesian Forces:  Max     0.003062222 RMS     0.000922185

 GradGradGradGradGradGradGradGradGradGradGradGradGradGradGradGradGradGrad
 Berny optimization.
 Using GEDIIS/GDIIS optimizer.
 FormGI is forming the generalized inverse of G from B-inverse, IUseBI=4.
 Internal  Forces:  Max     0.001711160 RMS     0.000430657
 Search for a local minimum.
 Step number   2 out of a maximum of   38
 All quantities printed in internal units (Hartrees-Bohrs-Radians)
 Mixed Optimization -- En-DIIS/RFO-DIIS
 Update second derivatives using D2CorX and points    1    2
 DE= -2.47D-04 DEPred=-2.19D-04 R= 1.12D+00
 TightC=F SS=  1.41D+00  RLast= 4.55D-02 DXNew= 5.0454D-01 1.3641D-01
 Trust test= 1.12D+00 RLast= 4.55D-02 DXMaxT set to 3.00D-01
 ITU=  1  0
 Use linear search instead of GDIIS.
     Eigenvalues ---    0.00280   0.05464   0.05464   0.05464   0.05464
     Eigenvalues ---    0.13370   0.16000   0.16000   0.16000   0.16000
     Eigenvalues ---    0.16000   0.26369   0.34549   0.34549   0.34549
     Eigenvalues ---    0.34550   0.34550   0.39615
 RFO step:  Lambda=-1.86021739D-05 EMin= 2.79920382D-03
 Quartic linear search produced a step of  0.14152.
 Iteration  1 RMS(Cart)=  0.00140761 RMS(Int)=  0.00000810
 Iteration  2 RMS(Cart)=  0.00000404 RMS(Int)=  0.00000737
 Iteration  3 RMS(Cart)=  0.00000000 RMS(Int)=  0.00000737
 ClnCor:  largest displacement from symmetrization is 1.09D-08 for atom     8.
 Variable       Old X    -DE/DX   Delta X   Delta X   Delta X     New X
                                 (Linear)    (Quad)   (Total)
    R1        2.88641  -0.00171  -0.00249  -0.00502  -0.00751   2.87890
    R2        2.05640   0.00040  -0.00109   0.00208   0.00099   2.05739
    R3        2.05640   0.00040  -0.00109   0.00208   0.00099   2.05739
    R4        2.05640   0.00040  -0.00109   0.00208   0.00099   2.05739
    R5        2.05640   0.00040  -0.00109   0.00208   0.00099   2.05739
    R6        2.05640   0.00040  -0.00109   0.00208   0.00099   2.05739
    R7        2.05640   0.00040  -0.00109   0.00208   0.00099   2.05739
    A1        1.93747   0.00032   0.00149   0.00124   0.00273   1.94020
    A2        1.93747   0.00032   0.00149   0.00124   0.00273   1.94020
    A3        1.93747   0.00032   0.00150   0.00124   0.00272   1.94020
    A4        1.88305  -0.00034  -0.00156  -0.00131  -0.00288   1.88016
    A5        1.88305  -0.00034  -0.00156  -0.00131  -0.00288   1.88016
    A6        1.88305  -0.00034  -0.00156  -0.00131  -0.00288   1.88016
    A7        1.93747   0.00032   0.00150   0.00124   0.00272   1.94020
    A8        1.93747   0.00032   0.00149   0.00124   0.00273   1.94020
    A9        1.93747   0.00032   0.00149   0.00124   0.00273   1.94020
   A10        1.88305  -0.00034  -0.00156  -0.00131  -0.00288   1.88016
   A11        1.88305  -0.00034  -0.00156  -0.00131  -0.00288   1.88016
   A12        1.88305  -0.00034  -0.00156  -0.00131  -0.00288   1.88016
    D1        1.04720   0.00000   0.00000   0.00000   0.00000   1.04720
    D2       -1.04720   0.00000   0.00000   0.00000   0.00000  -1.04720
    D3        3.14159   0.00000   0.00000   0.00000   0.00000   3.14159
    D4       -1.04720   0.00000   0.00000   0.00000   0.00000  -1.04720
    D5        3.14159   0.00000   0.00000   0.00000   0.00000   3.14159
    D6        1.04720   0.00000   0.00000   0.00000   0.00000   1.04720
    D7        3.14159   0.00000   0.00000   0.00000   0.00000   3.14159
    D8        1.04720   0.00000   0.00000   0.00000   0.00000   1.04720
    D9       -1.04720   0.00000   0.00000   0.00000   0.00000  -1.04720
         Item               Value     Threshold  Converged?
 Maximum Force            0.001711     0.000450     NO 
 RMS     Force            0.000431     0.000300     NO 
 Maximum Displacement     0.003751     0.001800     NO 
 RMS     Displacement     0.001408     0.001200     NO 
 Predicted change in Energy=-1.323184D-05
 GradGradGradGradGradGradGradGradGradGradGradGradGradGradGradGradGradGrad

                          Input orientation:                          
 ---------------------------------------------------------------------
 Center     Atomic      Atomic             Coordinates (Angstroms)
 Number     Number       Type             X           Y           Z
 ---------------------------------------------------------------------
      1          6           0       -6.381062    0.650667    0.000000
      2          6           0       -4.859648    0.571963    0.000000
      3          1           0       -6.756458    1.002939    0.959323
      4          1           0       -6.825137   -0.324697   -0.191789
      5          1           0       -6.739295    1.334682   -0.767537
      6          1           0       -4.501415   -0.112052    0.767537
      7          1           0       -4.415573    1.547327    0.191789
      8          1           0       -4.484252    0.219691   -0.959323
 ---------------------------------------------------------------------
                    Distance matrix (angstroms):
                    1          2          3          4          5
     1  C    0.000000
     2  C    1.523449   0.000000
     3  H    1.088724   2.168854   0.000000
     4  H    1.088724   2.168854   1.758521   0.000000
     5  H    1.088724   2.168854   1.758521   1.758520   0.000000
     6  H    2.168854   1.088724   2.522936   2.522936   3.075321
     7  H    2.168854   1.088724   2.522937   3.075322   2.522936
     8  H    2.168854   1.088724   3.075322   2.522937   2.522936
                    6          7          8
     6  H    0.000000
     7  H    1.758520   0.000000
     8  H    1.758521   1.758521   0.000000
 Stoichiometry    C2H6
 Framework group  CI[X(C2H6)]
 Deg. of freedom     9
 Full point group                 CI      NOp   2
 Largest Abelian subgroup         CI      NOp   2
 Largest concise Abelian subgroup CI      NOp   2
                         Standard orientation:                         
 ---------------------------------------------------------------------
 Center     Atomic      Atomic             Coordinates (Angstroms)
 Number     Number       Type             X           Y           Z
 ---------------------------------------------------------------------
      1          6           0       -0.760707    0.039352    0.000000
      2          6           0        0.760707   -0.039352    0.000000
      3          1           0       -1.136103    0.391624    0.959323
      4          1           0       -1.204782   -0.936012   -0.191789
      5          1           0       -1.118940    0.723367   -0.767537
      6          1           0        1.118940   -0.723367    0.767537
      7          1           0        1.204782    0.936012    0.191789
      8          1           0        1.136103   -0.391624   -0.959323
 ---------------------------------------------------------------------
 Rotational constants (GHZ):     81.0787724     20.1296529     20.1296525
 Standard basis: 6-31G(d,p) (6D, 7F)
 There are    30 symmetry adapted cartesian basis functions of AG  symmetry.
 There are    30 symmetry adapted cartesian basis functions of AU  symmetry.
 There are    30 symmetry adapted basis functions of AG  symmetry.
 There are    30 symmetry adapted basis functions of AU  symmetry.
    60 basis functions,    98 primitive gaussians,    60 cartesian basis functions
     9 alpha electrons        9 beta electrons
       nuclear repulsion energy        42.3665089613 Hartrees.
 NAtoms=    8 NActive=    8 NUniq=    4 SFac= 4.00D+00 NAtFMM=   60 NAOKFM=F Big=F
 Integral buffers will be    131072 words long.
 Raffenetti 1 integral format.
 Two-electron integral symmetry is turned on.
 One-electron integrals computed using PRISM.
 NBasis=    60 RedAO= T EigKep=  5.64D-03  NBF=    30    30
 NBsUse=    60 1.00D-06 EigRej= -1.00D+00 NBFU=    30    30
 Initial guess from the checkpoint file:  "/scr/Gau-13803.chk"
 B after Tr=     0.000000    0.000000    0.000000
         Rot=    1.000000    0.000000    0.000000    0.000000 Ang=   0.00 deg.
 Initial guess orbital symmetries:
       Occupied  (AG) (AU) (AG) (AU) (AU) (AU) (AG) (AG) (AG)
       Virtual   (AG) (AG) (AG) (AG) (AG) (AG) (AG) (AG) (AG) (AG)
                 (AG) (AG) (AG) (AG) (AG) (AG) (AG) (AG) (AG) (AG)
                 (AG) (AG) (AG) (AG) (AG) (AU) (AU) (AU) (AU) (AU)
                 (AU) (AU) (AU) (AU) (AU) (AU) (AU) (AU) (AU) (AU)
                 (AU) (AU) (AU) (AU) (AU) (AU) (AU) (AU) (AU) (AU)
                 (AU)
 Keep R1 ints in memory in symmetry-blocked form, NReq=2557331.
 Requested convergence on RMS density matrix=1.00D-08 within 128 cycles.
 Requested convergence on MAX density matrix=1.00D-06.
 Requested convergence on             energy=1.00D-06.
 No special actions if energy rises.
 SCF Done:  E(RHF) =  -79.2381922770     A.U. after    7 cycles
            NFock=  7  Conv=0.21D-08     -V/T= 2.0007
 ExpMin= 1.61D-01 ExpMax= 3.05D+03 ExpMxC= 4.57D+02 IAcc=3 IRadAn=         5 AccDes= 0.00D+00
 HarFok:  IExCor=  205 AccDes= 0.00D+00 IRadAn=         5 IDoV=-2 UseB2=F ITyADJ=14
 ICtDFT= 12500011 ScaDFX=  1.000000  1.000000  1.000000  1.000000
 Range of M.O.s used for correlation:     3    60
 NBasis=    60 NAE=     9 NBE=     9 NFC=     2 NFV=     0
 NROrb=     58 NOA=     7 NOB=     7 NVA=    51 NVB=    51
 Fully direct method using O(ONN) memory.
 JobTyp=1 Pass  1:  I=   3 to   9 NPSUse=  2 ParTrn=F ParDer=T DoDerP=T.
 Spin components of T(2) and E(2):
     alpha-alpha T2 =       0.1017553074D-01 E2=     -0.3076372244D-01
     alpha-beta  T2 =       0.7596810185D-01 E2=     -0.2436805792D+00
     beta-beta   T2 =       0.1017553074D-01 E2=     -0.3076372244D-01
 ANorm=    0.1047052608D+01
 E2 =    -0.3052080241D+00 EUMP2 =    -0.79543400301158D+02
          IDoAtm=11111111
          Differentiating once with respect to electric field.
                with respect to dipole field.
          Differentiating once with respect to nuclear coordinates.
 Keep R1 ints in memory in symmetry-blocked form, NReq=2539264.
          There are     1 degrees of freedom in the 1st order CPHF.  IDoFFX=0 NUNeed=     1.
 LinEq1:  Iter=  0 NonCon=     1 RMS=3.26D-03 Max=2.29D-02 NDo=     1
 AX will form     1 AO Fock derivatives at one time.
 LinEq1:  Iter=  1 NonCon=     1 RMS=1.11D-03 Max=1.39D-02 NDo=     1
 LinEq1:  Iter=  2 NonCon=     1 RMS=1.74D-04 Max=1.66D-03 NDo=     1
 LinEq1:  Iter=  3 NonCon=     1 RMS=2.29D-05 Max=1.91D-04 NDo=     1
 LinEq1:  Iter=  4 NonCon=     1 RMS=2.30D-06 Max=1.57D-05 NDo=     1
 LinEq1:  Iter=  5 NonCon=     1 RMS=2.00D-07 Max=1.54D-06 NDo=     1
 LinEq1:  Iter=  6 NonCon=     1 RMS=1.41D-08 Max=1.06D-07 NDo=     1
 LinEq1:  Iter=  7 NonCon=     1 RMS=1.16D-09 Max=1.65D-08 NDo=     1
 LinEq1:  Iter=  8 NonCon=     1 RMS=1.03D-10 Max=7.91D-10 NDo=     1
 LinEq1:  Iter=  9 NonCon=     0 RMS=8.63D-12 Max=6.50D-11 NDo=     1
 Linear equations converged to 1.000D-10 1.000D-09 after     9 iterations.
 End of Minotr F.D. properties file   721 does not exist.
 End of Minotr F.D. properties file   722 does not exist.
 End of Minotr F.D. properties file   788 does not exist.
 Calling FoFJK, ICntrl=  10002127 FMM=F ISym2X=1 I1Cent= 0 IOpClX= 0 NMat=1 NMatS=1 NMatT=0.
 ***** Axes restored to original set *****
 -------------------------------------------------------------------
 Center     Atomic                   Forces (Hartrees/Bohr)
 Number     Number              X              Y              Z
 -------------------------------------------------------------------
      1        6           0.000207913   -0.000010679   -0.000000073
      2        6          -0.000207913    0.000010679    0.000000073
      3        1          -0.000086527    0.000035758    0.000090147
      4        1          -0.000092996   -0.000089039   -0.000018024
      5        1          -0.000084968    0.000066931   -0.000072112
      6        1           0.000084968   -0.000066931    0.000072112
      7        1           0.000092996    0.000089039    0.000018024
      8        1           0.000086527   -0.000035758   -0.000090147
 -------------------------------------------------------------------
 Cartesian Forces:  Max     0.000207913 RMS     0.000088522

 GradGradGradGradGradGradGradGradGradGradGradGradGradGradGradGradGradGrad
 Berny optimization.
 Using GEDIIS/GDIIS optimizer.
 FormGI is forming the generalized inverse of G from B-inverse, IUseBI=4.
 Internal  Forces:  Max     0.000120875 RMS     0.000064984
 Search for a local minimum.
 Step number   3 out of a maximum of   38
 All quantities printed in internal units (Hartrees-Bohrs-Radians)
 Mixed Optimization -- En-DIIS/RFO-DIIS
 Swapping is turned off.
 Update second derivatives using D2CorX and points    1    2    3
 DE= -1.42D-05 DEPred=-1.32D-05 R= 1.07D+00
 TightC=F SS=  1.41D+00  RLast= 1.25D-02 DXNew= 5.0454D-01 3.7556D-02
 Trust test= 1.07D+00 RLast= 1.25D-02 DXMaxT set to 3.00D-01
 ITU=  1  1  0
     Eigenvalues ---    0.00280   0.05435   0.05435   0.05435   0.05435
     Eigenvalues ---    0.12139   0.16000   0.16000   0.16000   0.16000
     Eigenvalues ---    0.16000   0.28090   0.34549   0.34549   0.34549
     Eigenvalues ---    0.34550   0.34550   0.38858
 En-DIIS/RFO-DIIS IScMMF=        0 using points:     3    2
 RFO step:  Lambda=-2.30323105D-07.
 DidBck=F Rises=F RFO-DIIS coefs:    1.07769   -0.07769
 Iteration  1 RMS(Cart)=  0.00041646 RMS(Int)=  0.00000024
 Iteration  2 RMS(Cart)=  0.00000007 RMS(Int)=  0.00000023
 ClnCor:  largest displacement from symmetrization is 9.41D-09 for atom     6.
 Variable       Old X    -DE/DX   Delta X   Delta X   Delta X     New X
                                 (Linear)    (Quad)   (Total)
    R1        2.87890   0.00006  -0.00058   0.00062   0.00003   2.87893
    R2        2.05739   0.00012   0.00008   0.00027   0.00034   2.05773
    R3        2.05739   0.00012   0.00008   0.00027   0.00034   2.05773
    R4        2.05739   0.00012   0.00008   0.00027   0.00034   2.05773
    R5        2.05739   0.00012   0.00008   0.00027   0.00034   2.05773
    R6        2.05739   0.00012   0.00008   0.00027   0.00034   2.05773
    R7        2.05739   0.00012   0.00008   0.00027   0.00034   2.05773
    A1        1.94020   0.00005   0.00021   0.00018   0.00040   1.94059
    A2        1.94020   0.00005   0.00021   0.00018   0.00040   1.94059
    A3        1.94020   0.00005   0.00021   0.00019   0.00040   1.94059
    A4        1.88016  -0.00005  -0.00022  -0.00020  -0.00042   1.87974
    A5        1.88016  -0.00005  -0.00022  -0.00020  -0.00042   1.87974
    A6        1.88016  -0.00005  -0.00022  -0.00020  -0.00042   1.87974
    A7        1.94020   0.00005   0.00021   0.00019   0.00040   1.94059
    A8        1.94020   0.00005   0.00021   0.00018   0.00040   1.94059
    A9        1.94020   0.00005   0.00021   0.00018   0.00040   1.94059
   A10        1.88016  -0.00005  -0.00022  -0.00020  -0.00042   1.87974
   A11        1.88016  -0.00005  -0.00022  -0.00020  -0.00042   1.87974
   A12        1.88016  -0.00005  -0.00022  -0.00020  -0.00042   1.87974
    D1        1.04720   0.00000   0.00000   0.00000   0.00000   1.04720
    D2       -1.04720   0.00000   0.00000   0.00000   0.00000  -1.04720
    D3        3.14159   0.00000   0.00000   0.00000   0.00000   3.14159
    D4       -1.04720   0.00000   0.00000   0.00000   0.00000  -1.04720
    D5        3.14159   0.00000   0.00000   0.00000   0.00000   3.14159
    D6        1.04720   0.00000   0.00000   0.00000   0.00000   1.04720
    D7        3.14159   0.00000   0.00000   0.00000   0.00000   3.14159
    D8        1.04720   0.00000   0.00000   0.00000   0.00000   1.04720
    D9       -1.04720   0.00000   0.00000   0.00000   0.00000  -1.04720
         Item               Value     Threshold  Converged?
 Maximum Force            0.000121     0.000450     YES
 RMS     Force            0.000065     0.000300     YES
 Maximum Displacement     0.000899     0.001800     YES
 RMS     Displacement     0.000416     0.001200     YES
 Predicted change in Energy=-2.422527D-07
 Optimization completed.
    -- Stationary point found.
                           ----------------------------
                           !   Optimized Parameters   !
                           ! (Angstroms and Degrees)  !
 --------------------------                            --------------------------
 ! Name  Definition              Value          Derivative Info.                !
 --------------------------------------------------------------------------------
 ! R1    R(1,2)                  1.5234         -DE/DX =    0.0001              !
 ! R2    R(1,3)                  1.0887         -DE/DX =    0.0001              !
 ! R3    R(1,4)                  1.0887         -DE/DX =    0.0001              !
 ! R4    R(1,5)                  1.0887         -DE/DX =    0.0001              !
 ! R5    R(2,6)                  1.0887         -DE/DX =    0.0001              !
 ! R6    R(2,7)                  1.0887         -DE/DX =    0.0001              !
 ! R7    R(2,8)                  1.0887         -DE/DX =    0.0001              !
 ! A1    A(2,1,3)              111.1652         -DE/DX =    0.0                 !
 ! A2    A(2,1,4)              111.1652         -DE/DX =    0.0                 !
 ! A3    A(2,1,5)              111.1652         -DE/DX =    0.0                 !
 ! A4    A(3,1,4)              107.7254         -DE/DX =    0.0                 !
 ! A5    A(3,1,5)              107.7254         -DE/DX =    0.0                 !
 ! A6    A(4,1,5)              107.7254         -DE/DX =    0.0                 !
 ! A7    A(1,2,6)              111.1652         -DE/DX =    0.0                 !
 ! A8    A(1,2,7)              111.1652         -DE/DX =    0.0                 !
 ! A9    A(1,2,8)              111.1652         -DE/DX =    0.0                 !
 ! A10   A(6,2,7)              107.7254         -DE/DX =    0.0                 !
 ! A11   A(6,2,8)              107.7254         -DE/DX =    0.0                 !
 ! A12   A(7,2,8)              107.7254         -DE/DX =    0.0                 !
 ! D1    D(3,1,2,6)             60.0            -DE/DX =    0.0                 !
 ! D2    D(3,1,2,7)            -60.0            -DE/DX =    0.0                 !
 ! D3    D(3,1,2,8)            180.0            -DE/DX =    0.0                 !
 ! D4    D(4,1,2,6)            -60.0            -DE/DX =    0.0                 !
 ! D5    D(4,1,2,7)            180.0            -DE/DX =    0.0                 !
 ! D6    D(4,1,2,8)             60.0            -DE/DX =    0.0                 !
 ! D7    D(5,1,2,6)            180.0            -DE/DX =    0.0                 !
 ! D8    D(5,1,2,7)             60.0            -DE/DX =    0.0                 !
 ! D9    D(5,1,2,8)            -60.0            -DE/DX =    0.0                 !
 --------------------------------------------------------------------------------
 GradGradGradGradGradGradGradGradGradGradGradGradGradGradGradGradGradGrad

                          Input orientation:                          
 ---------------------------------------------------------------------
 Center     Atomic      Atomic             Coordinates (Angstroms)
 Number     Number       Type             X           Y           Z
 ---------------------------------------------------------------------
      1          6           0       -6.381062    0.650667    0.000000
      2          6           0       -4.859648    0.571963    0.000000
      3          1           0       -6.756458    1.002939    0.959323
      4          1           0       -6.825137   -0.324697   -0.191789
      5          1           0       -6.739295    1.334682   -0.767537
      6          1           0       -4.501415   -0.112052    0.767537
      7          1           0       -4.415573    1.547327    0.191789
      8          1           0       -4.484252    0.219691   -0.959323
 ---------------------------------------------------------------------
                    Distance matrix (angstroms):
                    1          2          3          4          5
     1  C    0.000000
     2  C    1.523449   0.000000
     3  H    1.088724   2.168854   0.000000
     4  H    1.088724   2.168854   1.758521   0.000000
     5  H    1.088724   2.168854   1.758521   1.758520   0.000000
     6  H    2.168854   1.088724   2.522936   2.522936   3.075321
     7  H    2.168854   1.088724   2.522937   3.075322   2.522936
     8  H    2.168854   1.088724   3.075322   2.522937   2.522936
                    6          7          8
     6  H    0.000000
     7  H    1.758520   0.000000
     8  H    1.758521   1.758521   0.000000
 Stoichiometry    C2H6
 Framework group  CI[X(C2H6)]
 Deg. of freedom     9
 Full point group                 CI      NOp   2
 Largest Abelian subgroup         CI      NOp   2
 Largest concise Abelian subgroup CI      NOp   2
                         Standard orientation:                         
 ---------------------------------------------------------------------
 Center     Atomic      Atomic             Coordinates (Angstroms)
 Number     Number       Type             X           Y           Z
 ---------------------------------------------------------------------
      1          6           0       -0.760707    0.039352    0.000000
      2          6           0        0.760707   -0.039352    0.000000
      3          1           0       -1.136103    0.391624    0.959323
      4          1           0       -1.204782   -0.936012   -0.191789
      5          1           0       -1.118940    0.723367   -0.767537
      6          1           0        1.118940   -0.723367    0.767537
      7          1           0        1.204782    0.936012    0.191789
      8          1           0        1.136103   -0.391624   -0.959323
 ---------------------------------------------------------------------
 Rotational constants (GHZ):     81.0787724     20.1296529     20.1296525

 **********************************************************************

            Population analysis using the SCF density.

 **********************************************************************

 Orbital symmetries:
       Occupied  (AG) (AU) (AG) (AU) (AU) (AU) (AG) (AG) (AG)
       Virtual   (AG) (AU) (AU) (AU) (AG) (AG) (AU) (AG) (AU) (AU)
                 (AG) (AG) (AU) (AU) (AU) (AG) (AG) (AG) (AU) (AG)
                 (AU) (AU) (AU) (AG) (AG) (AG) (AU) (AG) (AU) (AU)
                 (AG) (AG) (AU) (AU) (AU) (AG) (AG) (AG) (AU) (AU)
                 (AU) (AG) (AG) (AG) (AU) (AG) (AG) (AU) (AU) (AG)
                 (AU)
 The electronic state is 1-AG.
 Alpha  occ. eigenvalues --  -11.21167 -11.21108  -1.01880  -0.84164  -0.59646
 Alpha  occ. eigenvalues --   -0.59646  -0.50896  -0.48543  -0.48543
 Alpha virt. eigenvalues --    0.24230   0.30244   0.31686   0.31686   0.33775
 Alpha virt. eigenvalues --    0.33775   0.41415   0.70274   0.73795   0.73795
 Alpha virt. eigenvalues --    0.83114   0.83114   0.93919   1.12801   1.12801
 Alpha virt. eigenvalues --    1.16630   1.16630   1.16878   1.22393   1.27739
 Alpha virt. eigenvalues --    1.59026   1.59026   1.68853   1.96827   1.96827
 Alpha virt. eigenvalues --    2.17921   2.36251   2.36321   2.39278   2.39278
 Alpha virt. eigenvalues --    2.40844   2.40844   2.58319   2.58319   2.65943
 Alpha virt. eigenvalues --    2.81116   2.81116   3.01887   3.11505   3.14693
 Alpha virt. eigenvalues --    3.14693   3.26262   3.26262   3.53060   3.62328
 Alpha virt. eigenvalues --    3.77742   3.77742   3.91407   3.91407   4.74664
 Alpha virt. eigenvalues --    5.00508
          Condensed to atoms (all electrons):
               1          2          3          4          5          6
     1  C    4.906637   0.330243   0.404534   0.404534   0.404534  -0.038987
     2  C    0.330243   4.906637  -0.038987  -0.038987  -0.038987   0.404534
     3  H    0.404534  -0.038987   0.588290  -0.031311  -0.031311  -0.003339
     4  H    0.404534  -0.038987  -0.031311   0.588290  -0.031311  -0.003339
     5  H    0.404534  -0.038987  -0.031311  -0.031311   0.588290   0.004290
     6  H   -0.038987   0.404534  -0.003339  -0.003339   0.004290   0.588290
     7  H   -0.038987   0.404534  -0.003339   0.004290  -0.003339  -0.031311
     8  H   -0.038987   0.404534   0.004290  -0.003339  -0.003339  -0.031311
               7          8
     1  C   -0.038987  -0.038987
     2  C    0.404534   0.404534
     3  H   -0.003339   0.004290
     4  H    0.004290  -0.003339
     5  H   -0.003339  -0.003339
     6  H   -0.031311  -0.031311
     7  H    0.588290  -0.031311
     8  H   -0.031311   0.588290
 Mulliken charges:
               1
     1  C   -0.333518
     2  C   -0.333518
     3  H    0.111173
     4  H    0.111173
     5  H    0.111173
     6  H    0.111173
     7  H    0.111173
     8  H    0.111173
 Sum of Mulliken charges =   0.00000
 Mulliken charges with hydrogens summed into heavy atoms:
               1
     1  C    0.000000
     2  C    0.000000
 Electronic spatial extent (au):  <R**2>=            109.2448
 Charge=              0.0000 electrons
 Dipole moment (field-independent basis, Debye):
    X=              0.0000    Y=              0.0000    Z=              0.0000  Tot=              0.0000
 Quadrupole moment (field-independent basis, Debye-Ang):
   XX=            -15.5239   YY=            -14.9162   ZZ=            -14.9145
   XY=              0.0315   XZ=              0.0000   YZ=              0.0000
 Traceless Quadrupole moment (field-independent basis, Debye-Ang):
   XX=             -0.4057   YY=              0.2020   ZZ=              0.2037
   XY=              0.0315   XZ=              0.0000   YZ=              0.0000
 Octapole moment (field-independent basis, Debye-Ang**2):
  XXX=              0.0000  YYY=              0.0000  ZZZ=              0.0000  XYY=              0.0000
  XXY=              0.0000  XXZ=              0.0000  XZZ=              0.0000  YZZ=              0.0000
  YYZ=              0.0000  XYZ=              0.0000
 Hexadecapole moment (field-independent basis, Debye-Ang**3):
 XXXX=            -92.8251 YYYY=            -29.3696 ZZZZ=            -28.9940 XXXY=              1.8135
 XXXZ=              0.0055 YYYX=              2.5557 YYYZ=             -0.1062 ZZZX=             -0.6865
 ZZZY=              0.0355 XXYY=            -19.2431 XXZZ=            -19.4220 YYZZ=             -9.5799
 XXYZ=              0.0707 YYXZ=              0.6810 ZZXY=             -0.5673
 N-N= 4.236650896135D+01 E-N=-2.684780415533D+02  KE= 7.918053085846D+01
 Symmetry AG   KE= 4.109251024172D+01
 Symmetry AU   KE= 3.808802061674D+01
 1\1\GINC-N0286\FOpt\RMP2-FC\6-31G(d,p)\C2H6\GDAVIDS3\21-Feb-2017\0\\#n
  MP2/6-31G(d,p) Opt\\Ethane MP2 6-31Gdp\\0,1\C,-6.3810622034,0.6506667
 728,-0.0000004848\C,-4.8596477966,0.5719632272,0.0000004848\H,-6.75645
 80915,1.0029388454,0.9593234186\H,-6.8251365852,-0.3246972553,-0.19178
 913\H,-6.7392951506,1.3346821644,-0.7675368995\H,-4.5014148494,-0.1120
 521644,0.7675368995\H,-4.4155734148,1.5473272553,0.19178913\H,-4.48425
 19085,0.2196911546,-0.9593234186\\Version=ES64L-G09RevE.01\State=1-AG\
 HF=-79.2381923\MP2=-79.5434003\RMSD=2.098e-09\RMSF=8.852e-05\Dipole=0.
 ,0.,0.\PG=CI [X(C2H6)]\\@


 WHEN A MATHEMATICIAN ENGAGED IN INVESTIGATING
 PHYSICAL ACTIONS AND RESULTS HAS ARRIVED AT HIS
 CONCLUSIONS, MAY THEY NOT BE EXPRESSED IN COMMON
 LANGUAGE AS FULLY, CLEARLY, AND DEFINITELY AS IN
 MATHEMATICAL FORMULAE?
           - LETTER FROM M. FARADAY TO J.C. MAXWELL, 1857.
 Job cpu time:       0 days  0 hours  0 minutes 38.1 seconds.
 File lengths (MBytes):  RWF=      5 Int=      0 D2E=      0 Chk=      2 Scr=      1
 Normal termination of Gaussian 09 at Tue Feb 21 17:46:45 2017.
