 Entering Gaussian System, Link 0=g09
 Input=Ethane_MP2_6-31Gd.com
 Output=Ethane_MP2_6-31Gd.log
 Initial command:
 /sw/contrib/gaussian/g09/E01/g09/l1.exe "/scr/Gau-13137.inp" -scrdir="/scr/"
 Entering Link 1 = /sw/contrib/gaussian/g09/E01/g09/l1.exe PID=     13138.
  
 Copyright (c) 1988,1990,1992,1993,1995,1998,2003,2009,2015,
            Gaussian, Inc.  All Rights Reserved.
  
 This is part of the Gaussian(R) 09 program.  It is based on
 the Gaussian(R) 03 system (copyright 2003, Gaussian, Inc.),
 the Gaussian(R) 98 system (copyright 1998, Gaussian, Inc.),
 the Gaussian(R) 94 system (copyright 1995, Gaussian, Inc.),
 the Gaussian 92(TM) system (copyright 1992, Gaussian, Inc.),
 the Gaussian 90(TM) system (copyright 1990, Gaussian, Inc.),
 the Gaussian 88(TM) system (copyright 1988, Gaussian, Inc.),
 the Gaussian 86(TM) system (copyright 1986, Carnegie Mellon
 University), and the Gaussian 82(TM) system (copyright 1983,
 Carnegie Mellon University). Gaussian is a federally registered
 trademark of Gaussian, Inc.
  
 This software contains proprietary and confidential information,
 including trade secrets, belonging to Gaussian, Inc.
  
 This software is provided under written license and may be
 used, copied, transmitted, or stored only in accord with that
 written license.
  
 The following legend is applicable only to US Government
 contracts under FAR:
  
                    RESTRICTED RIGHTS LEGEND
  
 Use, reproduction and disclosure by the US Government is
 subject to restrictions as set forth in subparagraphs (a)
 and (c) of the Commercial Computer Software - Restricted
 Rights clause in FAR 52.227-19.
  
 Gaussian, Inc.
 340 Quinnipiac St., Bldg. 40, Wallingford CT 06492
  
  
 ---------------------------------------------------------------
 Warning -- This program may not be used in any manner that
 competes with the business of Gaussian, Inc. or will provide
 assistance to any competitor of Gaussian, Inc.  The licensee
 of this program is prohibited from giving any competitor of
 Gaussian, Inc. access to this program.  By using this program,
 the user acknowledges that Gaussian, Inc. is engaged in the
 business of creating and licensing software in the field of
 computational chemistry and represents and warrants to the
 licensee that it is not a competitor of Gaussian, Inc. and that
 it will not use this program in any manner prohibited above.
 ---------------------------------------------------------------
  

 Cite this work as:
 Gaussian 09, Revision E.01,
 M. J. Frisch, G. W. Trucks, H. B. Schlegel, G. E. Scuseria, 
 M. A. Robb, J. R. Cheeseman, G. Scalmani, V. Barone, B. Mennucci, 
 G. A. Petersson, H. Nakatsuji, M. Caricato, X. Li, H. P. Hratchian, 
 A. F. Izmaylov, J. Bloino, G. Zheng, J. L. Sonnenberg, M. Hada, 
 M. Ehara, K. Toyota, R. Fukuda, J. Hasegawa, M. Ishida, T. Nakajima, 
 Y. Honda, O. Kitao, H. Nakai, T. Vreven, J. A. Montgomery, Jr., 
 J. E. Peralta, F. Ogliaro, M. Bearpark, J. J. Heyd, E. Brothers, 
 K. N. Kudin, V. N. Staroverov, T. Keith, R. Kobayashi, J. Normand, 
 K. Raghavachari, A. Rendell, J. C. Burant, S. S. Iyengar, J. Tomasi, 
 M. Cossi, N. Rega, J. M. Millam, M. Klene, J. E. Knox, J. B. Cross, 
 V. Bakken, C. Adamo, J. Jaramillo, R. Gomperts, R. E. Stratmann, 
 O. Yazyev, A. J. Austin, R. Cammi, C. Pomelli, J. W. Ochterski, 
 R. L. Martin, K. Morokuma, V. G. Zakrzewski, G. A. Voth, 
 P. Salvador, J. J. Dannenberg, S. Dapprich, A. D. Daniels, 
 O. Farkas, J. B. Foresman, J. V. Ortiz, J. Cioslowski, 
 and D. J. Fox, Gaussian, Inc., Wallingford CT, 2013.
 
 ******************************************
 Gaussian 09:  ES64L-G09RevE.01 30-Nov-2015
                21-Feb-2017 
 ******************************************
 %NProcShared=8
 Will use up to    8 processors via shared memory.
 -------------------
 #n MP2/6-31G(d) Opt
 -------------------
 1/18=20,19=15,38=1/1,3;
 2/9=110,12=2,17=6,18=5,40=1/2;
 3/5=1,6=6,7=1,11=9,16=1,25=1,30=1,71=1/1,2,3;
 4//1;
 5/5=2,38=5/2;
 8/6=4,10=2/1;
 9/15=2,16=-3/6;
 10/5=1/2;
 6/7=2,8=2,9=2,10=2/1;
 7/12=2/1,2,3,16;
 1/18=20,19=15/3(2);
 2/9=110/2;
 99//99;
 2/9=110/2;
 3/5=1,6=6,7=1,11=9,16=1,25=1,30=1,71=1/1,2,3;
 4/5=5,16=3,69=1/1;
 5/5=2,38=5/2;
 8/6=4,10=2/1;
 9/15=2,16=-3/6;
 10/5=1/2;
 7/12=2/1,2,3,16;
 1/18=20,19=15/3(-8);
 2/9=110/2;
 6/7=2,8=2,9=2,10=2/1;
 99//99;
 -----------------
 Ethane MP2 6-31Gd
 -----------------
 Symbolic Z-matrix:
 Charge =  0 Multiplicity = 1
 C                    -6.3877    0.65101   0. 
 C                    -4.85301   0.57162   0. 
 H                    -6.75069   1.00542   0.96733 
 H                    -6.81994  -0.3333   -0.19339 
 H                    -6.73338   1.33993  -0.77394 
 H                    -4.50733  -0.1173    0.77394 
 H                    -4.42077   1.55593   0.19339 
 H                    -4.49002   0.21721  -0.96733 
 

 GradGradGradGradGradGradGradGradGradGradGradGradGradGradGradGradGradGrad
 Berny optimization.
 Initialization pass.
                           ----------------------------
                           !    Initial Parameters    !
                           ! (Angstroms and Degrees)  !
 --------------------------                            --------------------------
 ! Name  Definition              Value          Derivative Info.                !
 --------------------------------------------------------------------------------
 ! R1    R(1,2)                  1.5367         estimate D2E/DX2                !
 ! R2    R(1,3)                  1.0923         estimate D2E/DX2                !
 ! R3    R(1,4)                  1.0923         estimate D2E/DX2                !
 ! R4    R(1,5)                  1.0923         estimate D2E/DX2                !
 ! R5    R(2,6)                  1.0923         estimate D2E/DX2                !
 ! R6    R(2,7)                  1.0923         estimate D2E/DX2                !
 ! R7    R(2,8)                  1.0923         estimate D2E/DX2                !
 ! A1    A(2,1,3)              110.4041         estimate D2E/DX2                !
 ! A2    A(2,1,4)              110.4039         estimate D2E/DX2                !
 ! A3    A(2,1,5)              110.4038         estimate D2E/DX2                !
 ! A4    A(3,1,4)              108.5227         estimate D2E/DX2                !
 ! A5    A(3,1,5)              108.5224         estimate D2E/DX2                !
 ! A6    A(4,1,5)              108.5227         estimate D2E/DX2                !
 ! A7    A(1,2,6)              110.4038         estimate D2E/DX2                !
 ! A8    A(1,2,7)              110.4039         estimate D2E/DX2                !
 ! A9    A(1,2,8)              110.4041         estimate D2E/DX2                !
 ! A10   A(6,2,7)              108.5227         estimate D2E/DX2                !
 ! A11   A(6,2,8)              108.5224         estimate D2E/DX2                !
 ! A12   A(7,2,8)              108.5227         estimate D2E/DX2                !
 ! D1    D(3,1,2,6)             60.0002         estimate D2E/DX2                !
 ! D2    D(3,1,2,7)            -59.9998         estimate D2E/DX2                !
 ! D3    D(3,1,2,8)            180.0            estimate D2E/DX2                !
 ! D4    D(4,1,2,6)            -60.0            estimate D2E/DX2                !
 ! D5    D(4,1,2,7)            180.0            estimate D2E/DX2                !
 ! D6    D(4,1,2,8)             59.9998         estimate D2E/DX2                !
 ! D7    D(5,1,2,6)            180.0            estimate D2E/DX2                !
 ! D8    D(5,1,2,7)             60.0            estimate D2E/DX2                !
 ! D9    D(5,1,2,8)            -60.0002         estimate D2E/DX2                !
 --------------------------------------------------------------------------------
 Trust Radius=3.00D-01 FncErr=1.00D-07 GrdErr=1.00D-07
 Number of steps in this run=     38 maximum allowed number of steps=    100.
 GradGradGradGradGradGradGradGradGradGradGradGradGradGradGradGradGradGrad

                          Input orientation:                          
 ---------------------------------------------------------------------
 Center     Atomic      Atomic             Coordinates (Angstroms)
 Number     Number       Type             X           Y           Z
 ---------------------------------------------------------------------
      1          6           0       -6.387700    0.651010    0.000000
      2          6           0       -4.853010    0.571620    0.000000
      3          1           0       -6.750690    1.005420    0.967330
      4          1           0       -6.819940   -0.333300   -0.193390
      5          1           0       -6.733380    1.339930   -0.773940
      6          1           0       -4.507330   -0.117300    0.773940
      7          1           0       -4.420770    1.555930    0.193390
      8          1           0       -4.490020    0.217210   -0.967330
 ---------------------------------------------------------------------
                    Distance matrix (angstroms):
                    1          2          3          4          5
     1  C    0.000000
     2  C    1.536742   0.000000
     3  H    1.092289   2.173729   0.000000
     4  H    1.092290   2.173728   1.773200   0.000000
     5  H    1.092286   2.173724   1.773194   1.773198   0.000000
     6  H    2.173724   1.092286   2.516061   2.516058   3.078108
     7  H    2.173728   1.092290   2.516063   3.078117   2.516058
     8  H    2.173729   1.092289   3.078118   2.516063   2.516061
                    6          7          8
     6  H    0.000000
     7  H    1.773198   0.000000
     8  H    1.773194   1.773200   0.000000
 This structure is nearly, but not quite of a higher symmetry.
 Consider Symm=Loose if the higher symmetry is desired.
 Stoichiometry    C2H6
 Framework group  CI[X(C2H6)]
 Deg. of freedom     9
 Full point group                 CI      NOp   2
 Largest Abelian subgroup         CI      NOp   2
 Largest concise Abelian subgroup CI      NOp   2
                         Standard orientation:                         
 ---------------------------------------------------------------------
 Center     Atomic      Atomic             Coordinates (Angstroms)
 Number     Number       Type             X           Y           Z
 ---------------------------------------------------------------------
      1          6           0       -0.767345    0.039695    0.000000
      2          6           0        0.767345   -0.039695    0.000000
      3          1           0       -1.130335    0.394105    0.967330
      4          1           0       -1.199585   -0.944615   -0.193390
      5          1           0       -1.113025    0.728615   -0.773940
      6          1           0        1.113025   -0.728615    0.773940
      7          1           0        1.199585    0.944615    0.193390
      8          1           0        1.130335   -0.394105   -0.967330
 ---------------------------------------------------------------------
 Rotational constants (GHZ):     79.7421566     19.9565168     19.9564985
 Standard basis: 6-31G(d) (6D, 7F)
 There are    21 symmetry adapted cartesian basis functions of AG  symmetry.
 There are    21 symmetry adapted cartesian basis functions of AU  symmetry.
 There are    21 symmetry adapted basis functions of AG  symmetry.
 There are    21 symmetry adapted basis functions of AU  symmetry.
    42 basis functions,    80 primitive gaussians,    42 cartesian basis functions
     9 alpha electrons        9 beta electrons
       nuclear repulsion energy        42.1695770054 Hartrees.
 NAtoms=    8 NActive=    8 NUniq=    4 SFac= 4.00D+00 NAtFMM=   60 NAOKFM=F Big=F
 Integral buffers will be    131072 words long.
 Raffenetti 1 integral format.
 Two-electron integral symmetry is turned on.
 One-electron integrals computed using PRISM.
 NBasis=    42 RedAO= T EigKep=  5.92D-03  NBF=    21    21
 NBsUse=    42 1.00D-06 EigRej= -1.00D+00 NBFU=    21    21
 ExpMin= 1.61D-01 ExpMax= 3.05D+03 ExpMxC= 4.57D+02 IAcc=1 IRadAn=         1 AccDes= 0.00D+00
 Harris functional with IExCor=  205 and IRadAn=       1 diagonalized for initial guess.
 HarFok:  IExCor=  205 AccDes= 0.00D+00 IRadAn=         1 IDoV= 1 UseB2=F ITyADJ=14
 ICtDFT=  3500011 ScaDFX=  1.000000  1.000000  1.000000  1.000000
 FoFCou: FMM=F IPFlag=           0 FMFlag=      100000 FMFlg1=           0
         NFxFlg=           0 DoJE=T BraDBF=F KetDBF=T FulRan=T
         wScrn=  0.000000 ICntrl=     500 IOpCl=  0 I1Cent=   200000004 NGrid=           0
         NMat0=    1 NMatS0=      1 NMatT0=    0 NMatD0=    1 NMtDS0=    0 NMtDT0=    0
 Petite list used in FoFCou.
 Initial guess orbital symmetries:
       Occupied  (AG) (AU) (AG) (AU) (AU) (AU) (AG) (AG) (AG)
       Virtual   (AG) (AU) (AU) (AU) (AG) (AG) (AU) (AG) (AU) (AU)
                 (AG) (AG) (AU) (AU) (AU) (AG) (AG) (AG) (AU) (AG)
                 (AU) (AU) (AU) (AG) (AG) (AG) (AU) (AU) (AG) (AG)
                 (AU) (AG) (AU)
 The electronic state of the initial guess is 1-AG.
 Keep R1 ints in memory in symmetry-blocked form, NReq=1274617.
 Requested convergence on RMS density matrix=1.00D-08 within 128 cycles.
 Requested convergence on MAX density matrix=1.00D-06.
 Requested convergence on             energy=1.00D-06.
 No special actions if energy rises.
 SCF Done:  E(RHF) =  -79.2283419657     A.U. after    9 cycles
            NFock=  9  Conv=0.37D-08     -V/T= 2.0012
 ExpMin= 1.61D-01 ExpMax= 3.05D+03 ExpMxC= 4.57D+02 IAcc=3 IRadAn=         5 AccDes= 0.00D+00
 HarFok:  IExCor=  205 AccDes= 0.00D+00 IRadAn=         5 IDoV=-2 UseB2=F ITyADJ=14
 ICtDFT= 12500011 ScaDFX=  1.000000  1.000000  1.000000  1.000000
 Range of M.O.s used for correlation:     3    42
 NBasis=    42 NAE=     9 NBE=     9 NFC=     2 NFV=     0
 NROrb=     40 NOA=     7 NOB=     7 NVA=    33 NVB=    33
 Fully direct method using O(ONN) memory.
 JobTyp=1 Pass  1:  I=   3 to   9 NPSUse=  2 ParTrn=F ParDer=T DoDerP=T.
 Spin components of T(2) and E(2):
     alpha-alpha T2 =       0.9621041472D-02 E2=     -0.2874467070D-01
     alpha-beta  T2 =       0.6937523659D-01 E2=     -0.2087271178D+00
     beta-beta   T2 =       0.9621041472D-02 E2=     -0.2874467070D-01
 ANorm=    0.1043368257D+01
 E2 =    -0.2662164592D+00 EUMP2 =    -0.79494558424911D+02
          IDoAtm=11111111
          Differentiating once with respect to electric field.
                with respect to dipole field.
          Differentiating once with respect to nuclear coordinates.
 Keep R1 ints in memory in symmetry-blocked form, NReq=1259085.
          There are     1 degrees of freedom in the 1st order CPHF.  IDoFFX=0 NUNeed=     1.
 LinEq1:  Iter=  0 NonCon=     1 RMS=5.10D-03 Max=3.00D-02 NDo=     1
 AX will form     1 AO Fock derivatives at one time.
 LinEq1:  Iter=  1 NonCon=     1 RMS=1.82D-03 Max=1.80D-02 NDo=     1
 LinEq1:  Iter=  2 NonCon=     1 RMS=2.27D-04 Max=1.73D-03 NDo=     1
 LinEq1:  Iter=  3 NonCon=     1 RMS=2.85D-05 Max=2.04D-04 NDo=     1
 LinEq1:  Iter=  4 NonCon=     1 RMS=2.44D-06 Max=1.43D-05 NDo=     1
 LinEq1:  Iter=  5 NonCon=     1 RMS=2.17D-07 Max=1.73D-06 NDo=     1
 LinEq1:  Iter=  6 NonCon=     1 RMS=1.02D-08 Max=5.49D-08 NDo=     1
 LinEq1:  Iter=  7 NonCon=     1 RMS=6.42D-10 Max=3.75D-09 NDo=     1
 LinEq1:  Iter=  8 NonCon=     0 RMS=4.82D-11 Max=3.82D-10 NDo=     1
 Linear equations converged to 1.000D-10 1.000D-09 after     8 iterations.
 End of Minotr F.D. properties file   721 does not exist.
 End of Minotr F.D. properties file   722 does not exist.
 End of Minotr F.D. properties file   788 does not exist.

 **********************************************************************

            Population analysis using the SCF density.

 **********************************************************************

 Orbital symmetries:
       Occupied  (AG) (AU) (AG) (AU) (AU) (AU) (AG) (AG) (AG)
       Virtual   (AG) (AU) (AU) (AU) (AG) (AG) (AU) (AG) (AU) (AU)
                 (AG) (AG) (AU) (AU) (AU) (AG) (AG) (AG) (AU) (AG)
                 (AU) (AU) (AU) (AG) (AG) (AG) (AU) (AU) (AG) (AG)
                 (AU) (AG) (AU)
 The electronic state is 1-AG.
 Alpha  occ. eigenvalues --  -11.21317 -11.21260  -1.01579  -0.83920  -0.59735
 Alpha  occ. eigenvalues --   -0.59735  -0.50250  -0.48803  -0.48803
 Alpha virt. eigenvalues --    0.24084   0.30279   0.31705   0.31705   0.33618
 Alpha virt. eigenvalues --    0.33618   0.40740   0.70886   0.74301   0.74302
 Alpha virt. eigenvalues --    0.84555   0.84555   0.93653   1.15657   1.15657
 Alpha virt. eigenvalues --    1.19512   1.20381   1.20381   1.25507   1.27741
 Alpha virt. eigenvalues --    1.68507   1.79942   1.79942   2.24899   2.30351
 Alpha virt. eigenvalues --    2.30351   2.61566   2.61567   2.65615   2.65615
 Alpha virt. eigenvalues --    2.93622   4.57370   4.79426
          Condensed to atoms (all electrons):
               1          2          3          4          5          6
     1  C    5.079043   0.327322   0.393884   0.393884   0.393885  -0.038326
     2  C    0.327322   5.079043  -0.038326  -0.038326  -0.038326   0.393885
     3  H    0.393884  -0.038326   0.545337  -0.028445  -0.028446  -0.002838
     4  H    0.393884  -0.038326  -0.028445   0.545337  -0.028445  -0.002838
     5  H    0.393885  -0.038326  -0.028446  -0.028445   0.545336   0.003991
     6  H   -0.038326   0.393885  -0.002838  -0.002838   0.003991   0.545336
     7  H   -0.038326   0.393884  -0.002838   0.003991  -0.002838  -0.028445
     8  H   -0.038326   0.393884   0.003991  -0.002838  -0.002838  -0.028446
               7          8
     1  C   -0.038326  -0.038326
     2  C    0.393884   0.393884
     3  H   -0.002838   0.003991
     4  H    0.003991  -0.002838
     5  H   -0.002838  -0.002838
     6  H   -0.028445  -0.028446
     7  H    0.545337  -0.028445
     8  H   -0.028445   0.545337
 Mulliken charges:
               1
     1  C   -0.473041
     2  C   -0.473041
     3  H    0.157680
     4  H    0.157680
     5  H    0.157681
     6  H    0.157681
     7  H    0.157680
     8  H    0.157680
 Sum of Mulliken charges =   0.00000
 Mulliken charges with hydrogens summed into heavy atoms:
               1
     1  C    0.000000
     2  C    0.000000
 Electronic spatial extent (au):  <R**2>=            109.9086
 Charge=              0.0000 electrons
 Dipole moment (field-independent basis, Debye):
    X=              0.0000    Y=              0.0000    Z=              0.0000  Tot=              0.0000
 Quadrupole moment (field-independent basis, Debye-Ang):
   XX=            -15.7219   YY=            -14.9088   ZZ=            -14.9067
   XY=              0.0422   XZ=              0.0000   YZ=              0.0000
 Traceless Quadrupole moment (field-independent basis, Debye-Ang):
   XX=             -0.5427   YY=              0.2703   ZZ=              0.2725
   XY=              0.0422   XZ=              0.0000   YZ=              0.0000
 Octapole moment (field-independent basis, Debye-Ang**2):
  XXX=              0.0000  YYY=              0.0000  ZZZ=              0.0000  XYY=              0.0000
  XXY=              0.0000  XXZ=              0.0000  XZZ=              0.0000  YZZ=              0.0000
  YYZ=              0.0000  XYZ=              0.0000
 Hexadecapole moment (field-independent basis, Debye-Ang**3):
 XXXX=            -93.8579 YYYY=            -29.3034 ZZZZ=            -28.9265 XXXY=              1.8486
 XXXZ=              0.0055 YYYX=              2.5727 YYYZ=             -0.1058 ZZZX=             -0.6834
 ZZZY=              0.0353 XXYY=            -19.3623 XXZZ=            -19.5391 YYZZ=             -9.5582
 XXYZ=              0.0704 YYXZ=              0.6779 ZZXY=             -0.5553
 N-N= 4.216957700541D+01 E-N=-2.680191911320D+02  KE= 7.913138402513D+01
 Symmetry AG   KE= 4.105139121907D+01
 Symmetry AU   KE= 3.807999280606D+01
 Calling FoFJK, ICntrl=  10002127 FMM=F ISym2X=1 I1Cent= 0 IOpClX= 0 NMat=1 NMatS=1 NMatT=0.
 ***** Axes restored to original set *****
 -------------------------------------------------------------------
 Center     Atomic                   Forces (Hartrees/Bohr)
 Number     Number              X              Y              Z
 -------------------------------------------------------------------
      1        6           0.008577471   -0.000445029    0.000000780
      2        6          -0.008577471    0.000445029   -0.000000780
      3        1          -0.001735041   -0.000016374   -0.000305008
      4        1          -0.001713324    0.000406794    0.000061145
      5        1          -0.001741659   -0.000120493    0.000242484
      6        1           0.001741659    0.000120493   -0.000242484
      7        1           0.001713324   -0.000406794   -0.000061145
      8        1           0.001735041    0.000016374    0.000305008
 -------------------------------------------------------------------
 Cartesian Forces:  Max     0.008577471 RMS     0.002631320

 GradGradGradGradGradGradGradGradGradGradGradGradGradGradGradGradGradGrad
 Berny optimization.
 FormGI is forming the generalized inverse of G from B-inverse, IUseBI=4.
 Internal  Forces:  Max     0.003391970 RMS     0.001326842
 Search for a local minimum.
 Step number   1 out of a maximum of   38
 All quantities printed in internal units (Hartrees-Bohrs-Radians)
 Mixed Optimization -- RFO/linear search
 Second derivative matrix not updated -- first step.
 ITU=  0
     Eigenvalues ---    0.00280   0.05575   0.05575   0.05575   0.05575
     Eigenvalues ---    0.16000   0.16000   0.16000   0.16000   0.16000
     Eigenvalues ---    0.16000   0.28809   0.34549   0.34549   0.34549
     Eigenvalues ---    0.34549   0.34550   0.34550
 RFO step:  Lambda=-2.73846079D-04 EMin= 2.79920382D-03
 Linear search not attempted -- first point.
 Iteration  1 RMS(Cart)=  0.00791116 RMS(Int)=  0.00006604
 Iteration  2 RMS(Cart)=  0.00005996 RMS(Int)=  0.00003752
 Iteration  3 RMS(Cart)=  0.00000000 RMS(Int)=  0.00003752
 ClnCor:  largest displacement from symmetrization is 3.15D-09 for atom     8.
 Variable       Old X    -DE/DX   Delta X   Delta X   Delta X     New X
                                 (Linear)    (Quad)   (Total)
    R1        2.90402  -0.00339   0.00000  -0.01176  -0.01176   2.89226
    R2        2.06413   0.00030   0.00000   0.00087   0.00087   2.06500
    R3        2.06413   0.00030   0.00000   0.00087   0.00087   2.06500
    R4        2.06412   0.00030   0.00000   0.00088   0.00088   2.06500
    R5        2.06412   0.00030   0.00000   0.00088   0.00088   2.06500
    R6        2.06413   0.00030   0.00000   0.00087   0.00087   2.06500
    R7        2.06413   0.00030   0.00000   0.00087   0.00087   2.06500
    A1        1.92691   0.00173   0.00000   0.01080   0.01075   1.93766
    A2        1.92691   0.00173   0.00000   0.01081   0.01075   1.93766
    A3        1.92691   0.00173   0.00000   0.01081   0.01075   1.93766
    A4        1.89408  -0.00179   0.00000  -0.01117  -0.01123   1.88285
    A5        1.89407  -0.00179   0.00000  -0.01117  -0.01123   1.88285
    A6        1.89408  -0.00179   0.00000  -0.01117  -0.01123   1.88285
    A7        1.92691   0.00173   0.00000   0.01081   0.01075   1.93766
    A8        1.92691   0.00173   0.00000   0.01081   0.01075   1.93766
    A9        1.92691   0.00173   0.00000   0.01080   0.01075   1.93766
   A10        1.89408  -0.00179   0.00000  -0.01117  -0.01123   1.88285
   A11        1.89407  -0.00179   0.00000  -0.01117  -0.01123   1.88285
   A12        1.89408  -0.00179   0.00000  -0.01117  -0.01123   1.88285
    D1        1.04720   0.00000   0.00000   0.00000   0.00000   1.04720
    D2       -1.04719   0.00000   0.00000   0.00000   0.00000  -1.04720
    D3        3.14159   0.00000   0.00000   0.00000   0.00000   3.14159
    D4       -1.04720   0.00000   0.00000   0.00000   0.00000  -1.04720
    D5        3.14159   0.00000   0.00000   0.00000   0.00000   3.14159
    D6        1.04719   0.00000   0.00000   0.00000   0.00000   1.04720
    D7        3.14159   0.00000   0.00000   0.00000   0.00000   3.14159
    D8        1.04720   0.00000   0.00000   0.00000   0.00000   1.04720
    D9       -1.04720   0.00000   0.00000   0.00000   0.00000  -1.04720
         Item               Value     Threshold  Converged?
 Maximum Force            0.003392     0.000450     NO 
 RMS     Force            0.001327     0.000300     NO 
 Maximum Displacement     0.015407     0.001800     NO 
 RMS     Displacement     0.007904     0.001200     NO 
 Predicted change in Energy=-1.371383D-04
 GradGradGradGradGradGradGradGradGradGradGradGradGradGradGradGradGradGrad

                          Input orientation:                          
 ---------------------------------------------------------------------
 Center     Atomic      Atomic             Coordinates (Angstroms)
 Number     Number       Type             X           Y           Z
 ---------------------------------------------------------------------
      1          6           0       -6.384592    0.650850   -0.000001
      2          6           0       -4.856118    0.571780    0.000001
      3          1           0       -6.758775    1.004617    0.963814
      4          1           0       -6.827775   -0.329234   -0.192687
      5          1           0       -6.741533    1.337913   -0.771130
      6          1           0       -4.499177   -0.115283    0.771130
      7          1           0       -4.412935    1.551864    0.192687
      8          1           0       -4.481935    0.218013   -0.963814
 ---------------------------------------------------------------------
                    Distance matrix (angstroms):
                    1          2          3          4          5
     1  C    0.000000
     2  C    1.530518   0.000000
     3  H    1.092750   2.176324   0.000000
     4  H    1.092750   2.176324   1.766752   0.000000
     5  H    1.092750   2.176325   1.766752   1.766752   0.000000
     6  H    2.176325   1.092750   2.529246   2.529246   3.085207
     7  H    2.176324   1.092750   2.529245   3.085206   2.529246
     8  H    2.176324   1.092750   3.085205   2.529245   2.529246
                    6          7          8
     6  H    0.000000
     7  H    1.766752   0.000000
     8  H    1.766752   1.766752   0.000000
 Stoichiometry    C2H6
 Framework group  CI[X(C2H6)]
 Deg. of freedom     9
 Full point group                 CI      NOp   2
 Largest Abelian subgroup         CI      NOp   2
 Largest concise Abelian subgroup CI      NOp   2
                         Standard orientation:                         
 ---------------------------------------------------------------------
 Center     Atomic      Atomic             Coordinates (Angstroms)
 Number     Number       Type             X           Y           Z
 ---------------------------------------------------------------------
      1          6           0       -0.764237    0.039535   -0.000001
      2          6           0        0.764237   -0.039535    0.000001
      3          1           0       -1.138420    0.393302    0.963814
      4          1           0       -1.207420   -0.940549   -0.192687
      5          1           0       -1.121178    0.726598   -0.771130
      6          1           0        1.121178   -0.726598    0.771130
      7          1           0        1.207420    0.940549    0.192687
      8          1           0        1.138420   -0.393302   -0.963814
 ---------------------------------------------------------------------
 Rotational constants (GHZ):     80.3250338     19.9766129     19.9766109
 Standard basis: 6-31G(d) (6D, 7F)
 There are    21 symmetry adapted cartesian basis functions of AG  symmetry.
 There are    21 symmetry adapted cartesian basis functions of AU  symmetry.
 There are    21 symmetry adapted basis functions of AG  symmetry.
 There are    21 symmetry adapted basis functions of AU  symmetry.
    42 basis functions,    80 primitive gaussians,    42 cartesian basis functions
     9 alpha electrons        9 beta electrons
       nuclear repulsion energy        42.2009327789 Hartrees.
 NAtoms=    8 NActive=    8 NUniq=    4 SFac= 4.00D+00 NAtFMM=   60 NAOKFM=F Big=F
 Integral buffers will be    131072 words long.
 Raffenetti 1 integral format.
 Two-electron integral symmetry is turned on.
 One-electron integrals computed using PRISM.
 NBasis=    42 RedAO= T EigKep=  5.93D-03  NBF=    21    21
 NBsUse=    42 1.00D-06 EigRej= -1.00D+00 NBFU=    21    21
 Initial guess from the checkpoint file:  "/scr/Gau-13138.chk"
 B after Tr=     0.000000    0.000000    0.000000
         Rot=    1.000000    0.000000    0.000000    0.000000 Ang=   0.00 deg.
 Initial guess orbital symmetries:
       Occupied  (AG) (AU) (AG) (AU) (AU) (AU) (AG) (AG) (AG)
       Virtual   (AG) (AG) (AG) (AG) (AG) (AG) (AG) (AG) (AG) (AG)
                 (AG) (AG) (AG) (AG) (AG) (AG) (AU) (AU) (AU) (AU)
                 (AU) (AU) (AU) (AU) (AU) (AU) (AU) (AU) (AU) (AU)
                 (AU) (AU) (AU)
 Keep R1 ints in memory in symmetry-blocked form, NReq=1274634.
 Requested convergence on RMS density matrix=1.00D-08 within 128 cycles.
 Requested convergence on MAX density matrix=1.00D-06.
 Requested convergence on             energy=1.00D-06.
 No special actions if energy rises.
 SCF Done:  E(RHF) =  -79.2285281248     A.U. after    8 cycles
            NFock=  8  Conv=0.12D-08     -V/T= 2.0012
 ExpMin= 1.61D-01 ExpMax= 3.05D+03 ExpMxC= 4.57D+02 IAcc=3 IRadAn=         5 AccDes= 0.00D+00
 HarFok:  IExCor=  205 AccDes= 0.00D+00 IRadAn=         5 IDoV=-2 UseB2=F ITyADJ=14
 ICtDFT= 12500011 ScaDFX=  1.000000  1.000000  1.000000  1.000000
 Range of M.O.s used for correlation:     3    42
 NBasis=    42 NAE=     9 NBE=     9 NFC=     2 NFV=     0
 NROrb=     40 NOA=     7 NOB=     7 NVA=    33 NVB=    33
 Fully direct method using O(ONN) memory.
 JobTyp=1 Pass  1:  I=   3 to   9 NPSUse=  2 ParTrn=F ParDer=T DoDerP=T.
 Spin components of T(2) and E(2):
     alpha-alpha T2 =       0.9616964389D-02 E2=     -0.2875394120D-01
     alpha-beta  T2 =       0.6932011438D-01 E2=     -0.2086912210D+00
     beta-beta   T2 =       0.9616964389D-02 E2=     -0.2875394120D-01
 ANorm=    0.1043337933D+01
 E2 =    -0.2661991034D+00 EUMP2 =    -0.79494727228221D+02
          IDoAtm=11111111
          Differentiating once with respect to electric field.
                with respect to dipole field.
          Differentiating once with respect to nuclear coordinates.
 Keep R1 ints in memory in symmetry-blocked form, NReq=1259085.
          There are     1 degrees of freedom in the 1st order CPHF.  IDoFFX=0 NUNeed=     1.
 LinEq1:  Iter=  0 NonCon=     1 RMS=5.11D-03 Max=3.02D-02 NDo=     1
 AX will form     1 AO Fock derivatives at one time.
 LinEq1:  Iter=  1 NonCon=     1 RMS=1.83D-03 Max=1.83D-02 NDo=     1
 LinEq1:  Iter=  2 NonCon=     1 RMS=2.30D-04 Max=1.78D-03 NDo=     1
 LinEq1:  Iter=  3 NonCon=     1 RMS=2.76D-05 Max=1.89D-04 NDo=     1
 LinEq1:  Iter=  4 NonCon=     1 RMS=2.42D-06 Max=1.46D-05 NDo=     1
 LinEq1:  Iter=  5 NonCon=     1 RMS=2.18D-07 Max=1.72D-06 NDo=     1
 LinEq1:  Iter=  6 NonCon=     1 RMS=1.10D-08 Max=6.33D-08 NDo=     1
 LinEq1:  Iter=  7 NonCon=     1 RMS=9.80D-10 Max=1.05D-08 NDo=     1
 LinEq1:  Iter=  8 NonCon=     0 RMS=8.37D-11 Max=5.93D-10 NDo=     1
 Linear equations converged to 1.000D-10 1.000D-09 after     8 iterations.
 End of Minotr F.D. properties file   721 does not exist.
 End of Minotr F.D. properties file   722 does not exist.
 End of Minotr F.D. properties file   788 does not exist.
 Calling FoFJK, ICntrl=  10002127 FMM=F ISym2X=1 I1Cent= 0 IOpClX= 0 NMat=1 NMatS=1 NMatT=0.
 ***** Axes restored to original set *****
 -------------------------------------------------------------------
 Center     Atomic                   Forces (Hartrees/Bohr)
 Number     Number              X              Y              Z
 -------------------------------------------------------------------
      1        6           0.003141676   -0.000162535    0.000000203
      2        6          -0.003141676    0.000162535   -0.000000203
      3        1          -0.000357732    0.000060197    0.000120076
      4        1          -0.000366309   -0.000106049   -0.000024060
      5        1          -0.000355378    0.000101597   -0.000096003
      6        1           0.000355378   -0.000101597    0.000096003
      7        1           0.000366309    0.000106049    0.000024060
      8        1           0.000357732   -0.000060197   -0.000120076
 -------------------------------------------------------------------
 Cartesian Forces:  Max     0.003141676 RMS     0.000928009

 GradGradGradGradGradGradGradGradGradGradGradGradGradGradGradGradGradGrad
 Berny optimization.
 Using GEDIIS/GDIIS optimizer.
 FormGI is forming the generalized inverse of G from B-inverse, IUseBI=4.
 Internal  Forces:  Max     0.002065020 RMS     0.000449440
 Search for a local minimum.
 Step number   2 out of a maximum of   38
 All quantities printed in internal units (Hartrees-Bohrs-Radians)
 Mixed Optimization -- En-DIIS/RFO-DIIS
 Update second derivatives using D2CorX and points    1    2
 DE= -1.69D-04 DEPred=-1.37D-04 R= 1.23D+00
 TightC=F SS=  1.41D+00  RLast= 3.99D-02 DXNew= 5.0454D-01 1.1972D-01
 Trust test= 1.23D+00 RLast= 3.99D-02 DXMaxT set to 3.00D-01
 ITU=  1  0
 Use linear search instead of GDIIS.
     Eigenvalues ---    0.00280   0.05462   0.05462   0.05462   0.05462
     Eigenvalues ---    0.13136   0.16000   0.16000   0.16000   0.16000
     Eigenvalues ---    0.16000   0.26970   0.34484   0.34549   0.34549
     Eigenvalues ---    0.34549   0.34550   0.34550
 RFO step:  Lambda=-1.23480040D-05 EMin= 2.79920382D-03
 Quartic linear search produced a step of  0.30748.
 Iteration  1 RMS(Cart)=  0.00147956 RMS(Int)=  0.00001429
 Iteration  2 RMS(Cart)=  0.00000465 RMS(Int)=  0.00001380
 Iteration  3 RMS(Cart)=  0.00000000 RMS(Int)=  0.00001380
 ClnCor:  largest displacement from symmetrization is 1.10D-08 for atom     8.
 Variable       Old X    -DE/DX   Delta X   Delta X   Delta X     New X
                                 (Linear)    (Quad)   (Total)
    R1        2.89226  -0.00207  -0.00362  -0.00629  -0.00991   2.88235
    R2        2.06500   0.00025   0.00027   0.00071   0.00098   2.06598
    R3        2.06500   0.00025   0.00027   0.00071   0.00098   2.06598
    R4        2.06500   0.00025   0.00027   0.00071   0.00098   2.06598
    R5        2.06500   0.00025   0.00027   0.00071   0.00098   2.06598
    R6        2.06500   0.00025   0.00027   0.00071   0.00098   2.06598
    R7        2.06500   0.00025   0.00027   0.00071   0.00098   2.06598
    A1        1.93766   0.00028   0.00330  -0.00047   0.00281   1.94047
    A2        1.93766   0.00028   0.00330  -0.00047   0.00281   1.94047
    A3        1.93766   0.00028   0.00331  -0.00048   0.00281   1.94047
    A4        1.88285  -0.00030  -0.00345   0.00050  -0.00297   1.87987
    A5        1.88285  -0.00030  -0.00345   0.00050  -0.00297   1.87987
    A6        1.88285  -0.00030  -0.00345   0.00050  -0.00297   1.87987
    A7        1.93766   0.00028   0.00331  -0.00048   0.00281   1.94047
    A8        1.93766   0.00028   0.00330  -0.00047   0.00281   1.94047
    A9        1.93766   0.00028   0.00330  -0.00047   0.00281   1.94047
   A10        1.88285  -0.00030  -0.00345   0.00050  -0.00297   1.87987
   A11        1.88285  -0.00030  -0.00345   0.00050  -0.00297   1.87987
   A12        1.88285  -0.00030  -0.00345   0.00050  -0.00297   1.87987
    D1        1.04720   0.00000   0.00000   0.00000   0.00000   1.04720
    D2       -1.04720   0.00000   0.00000   0.00000   0.00000  -1.04720
    D3        3.14159   0.00000   0.00000   0.00000   0.00000   3.14159
    D4       -1.04720   0.00000   0.00000   0.00000   0.00000  -1.04720
    D5        3.14159   0.00000   0.00000   0.00000   0.00000   3.14159
    D6        1.04720   0.00000   0.00000   0.00000   0.00000   1.04720
    D7        3.14159   0.00000   0.00000   0.00000   0.00000   3.14159
    D8        1.04720   0.00000   0.00000   0.00000   0.00000   1.04720
    D9       -1.04720   0.00000   0.00000   0.00000   0.00000  -1.04720
         Item               Value     Threshold  Converged?
 Maximum Force            0.002065     0.000450     NO 
 RMS     Force            0.000449     0.000300     NO 
 Maximum Displacement     0.004948     0.001800     NO 
 RMS     Displacement     0.001481     0.001200     NO 
 Predicted change in Energy=-1.596577D-05
 GradGradGradGradGradGradGradGradGradGradGradGradGradGradGradGradGradGrad

                          Input orientation:                          
 ---------------------------------------------------------------------
 Center     Atomic      Atomic             Coordinates (Angstroms)
 Number     Number       Type             X           Y           Z
 ---------------------------------------------------------------------
      1          6           0       -6.381974    0.650714    0.000000
      2          6           0       -4.858736    0.571916    0.000000
      3          1           0       -6.759216    1.004435    0.963225
      4          1           0       -6.828173   -0.328601   -0.192569
      5          1           0       -6.741983    1.337528   -0.770659
      6          1           0       -4.498727   -0.114898    0.770659
      7          1           0       -4.412537    1.551231    0.192569
      8          1           0       -4.481494    0.218195   -0.963225
 ---------------------------------------------------------------------
                    Distance matrix (angstroms):
                    1          2          3          4          5
     1  C    0.000000
     2  C    1.525274   0.000000
     3  H    1.093267   2.174096   0.000000
     4  H    1.093267   2.174096   1.765673   0.000000
     5  H    1.093267   2.174096   1.765673   1.765673   0.000000
     6  H    2.174096   1.093267   2.529782   2.529782   3.085027
     7  H    2.174096   1.093267   2.529782   3.085028   2.529782
     8  H    2.174096   1.093267   3.085028   2.529782   2.529782
                    6          7          8
     6  H    0.000000
     7  H    1.765673   0.000000
     8  H    1.765673   1.765673   0.000000
 Stoichiometry    C2H6
 Framework group  CI[X(C2H6)]
 Deg. of freedom     9
 Full point group                 CI      NOp   2
 Largest Abelian subgroup         CI      NOp   2
 Largest concise Abelian subgroup CI      NOp   2
                         Standard orientation:                         
 ---------------------------------------------------------------------
 Center     Atomic      Atomic             Coordinates (Angstroms)
 Number     Number       Type             X           Y           Z
 ---------------------------------------------------------------------
      1          6           0       -0.761619    0.039399    0.000000
      2          6           0        0.761619   -0.039399    0.000000
      3          1           0       -1.138861    0.393120    0.963225
      4          1           0       -1.207818   -0.939916   -0.192569
      5          1           0       -1.121628    0.726213   -0.770659
      6          1           0        1.121628   -0.726213    0.770659
      7          1           0        1.207818    0.939916    0.192569
      8          1           0        1.138861   -0.393120   -0.963225
 ---------------------------------------------------------------------
 Rotational constants (GHZ):     80.4232630     20.0510863     20.0510857
 Standard basis: 6-31G(d) (6D, 7F)
 There are    21 symmetry adapted cartesian basis functions of AG  symmetry.
 There are    21 symmetry adapted cartesian basis functions of AU  symmetry.
 There are    21 symmetry adapted basis functions of AG  symmetry.
 There are    21 symmetry adapted basis functions of AU  symmetry.
    42 basis functions,    80 primitive gaussians,    42 cartesian basis functions
     9 alpha electrons        9 beta electrons
       nuclear repulsion energy        42.2453074484 Hartrees.
 NAtoms=    8 NActive=    8 NUniq=    4 SFac= 4.00D+00 NAtFMM=   60 NAOKFM=F Big=F
 Integral buffers will be    131072 words long.
 Raffenetti 1 integral format.
 Two-electron integral symmetry is turned on.
 One-electron integrals computed using PRISM.
 NBasis=    42 RedAO= T EigKep=  5.89D-03  NBF=    21    21
 NBsUse=    42 1.00D-06 EigRej= -1.00D+00 NBFU=    21    21
 Initial guess from the checkpoint file:  "/scr/Gau-13138.chk"
 B after Tr=     0.000000    0.000000    0.000000
         Rot=    1.000000    0.000000    0.000000    0.000000 Ang=   0.00 deg.
 Initial guess orbital symmetries:
       Occupied  (AG) (AU) (AG) (AU) (AU) (AU) (AG) (AG) (AG)
       Virtual   (AG) (AG) (AG) (AG) (AG) (AG) (AG) (AG) (AG) (AG)
                 (AG) (AG) (AG) (AG) (AG) (AG) (AU) (AU) (AU) (AU)
                 (AU) (AU) (AU) (AU) (AU) (AU) (AU) (AU) (AU) (AU)
                 (AU) (AU) (AU)
 Keep R1 ints in memory in symmetry-blocked form, NReq=1274634.
 Requested convergence on RMS density matrix=1.00D-08 within 128 cycles.
 Requested convergence on MAX density matrix=1.00D-06.
 Requested convergence on             energy=1.00D-06.
 No special actions if energy rises.
 SCF Done:  E(RHF) =  -79.2285160914     A.U. after    7 cycles
            NFock=  7  Conv=0.38D-08     -V/T= 2.0011
 ExpMin= 1.61D-01 ExpMax= 3.05D+03 ExpMxC= 4.57D+02 IAcc=3 IRadAn=         5 AccDes= 0.00D+00
 HarFok:  IExCor=  205 AccDes= 0.00D+00 IRadAn=         5 IDoV=-2 UseB2=F ITyADJ=14
 ICtDFT= 12500011 ScaDFX=  1.000000  1.000000  1.000000  1.000000
 Range of M.O.s used for correlation:     3    42
 NBasis=    42 NAE=     9 NBE=     9 NFC=     2 NFV=     0
 NROrb=     40 NOA=     7 NOB=     7 NVA=    33 NVB=    33
 Fully direct method using O(ONN) memory.
 JobTyp=1 Pass  1:  I=   3 to   9 NPSUse=  2 ParTrn=F ParDer=T DoDerP=T.
 Spin components of T(2) and E(2):
     alpha-alpha T2 =       0.9616046181D-02 E2=     -0.2876724776D-01
     alpha-beta  T2 =       0.6929001789D-01 E2=     -0.2086911337D+00
     beta-beta   T2 =       0.9616046181D-02 E2=     -0.2876724776D-01
 ANorm=    0.1043322630D+01
 E2 =    -0.2662256292D+00 EUMP2 =    -0.79494741720589D+02
          IDoAtm=11111111
          Differentiating once with respect to electric field.
                with respect to dipole field.
          Differentiating once with respect to nuclear coordinates.
 Keep R1 ints in memory in symmetry-blocked form, NReq=1259085.
          There are     1 degrees of freedom in the 1st order CPHF.  IDoFFX=0 NUNeed=     1.
 LinEq1:  Iter=  0 NonCon=     1 RMS=5.12D-03 Max=2.88D-02 NDo=     1
 AX will form     1 AO Fock derivatives at one time.
 LinEq1:  Iter=  1 NonCon=     1 RMS=1.84D-03 Max=1.85D-02 NDo=     1
 LinEq1:  Iter=  2 NonCon=     1 RMS=2.32D-04 Max=1.81D-03 NDo=     1
 LinEq1:  Iter=  3 NonCon=     1 RMS=2.74D-05 Max=1.85D-04 NDo=     1
 LinEq1:  Iter=  4 NonCon=     1 RMS=2.42D-06 Max=1.49D-05 NDo=     1
 LinEq1:  Iter=  5 NonCon=     1 RMS=2.20D-07 Max=1.74D-06 NDo=     1
 LinEq1:  Iter=  6 NonCon=     1 RMS=1.18D-08 Max=9.02D-08 NDo=     1
 LinEq1:  Iter=  7 NonCon=     1 RMS=1.18D-09 Max=1.29D-08 NDo=     1
 LinEq1:  Iter=  8 NonCon=     0 RMS=9.05D-11 Max=6.42D-10 NDo=     1
 Linear equations converged to 1.000D-10 1.000D-09 after     8 iterations.
 End of Minotr F.D. properties file   721 does not exist.
 End of Minotr F.D. properties file   722 does not exist.
 End of Minotr F.D. properties file   788 does not exist.
 Calling FoFJK, ICntrl=  10002127 FMM=F ISym2X=1 I1Cent= 0 IOpClX= 0 NMat=1 NMatS=1 NMatT=0.
 ***** Axes restored to original set *****
 -------------------------------------------------------------------
 Center     Atomic                   Forces (Hartrees/Bohr)
 Number     Number              X              Y              Z
 -------------------------------------------------------------------
      1        6          -0.000344987    0.000017938   -0.000000125
      2        6           0.000344987   -0.000017938    0.000000125
      3        1          -0.000026822   -0.000003360   -0.000013685
      4        1          -0.000025865    0.000015543    0.000002743
      5        1          -0.000027160   -0.000008077    0.000010958
      6        1           0.000027160    0.000008077   -0.000010958
      7        1           0.000025865   -0.000015543   -0.000002743
      8        1           0.000026822    0.000003360    0.000013685
 -------------------------------------------------------------------
 Cartesian Forces:  Max     0.000344987 RMS     0.000100870

 GradGradGradGradGradGradGradGradGradGradGradGradGradGradGradGradGradGrad
 Berny optimization.
 Using GEDIIS/GDIIS optimizer.
 FormGI is forming the generalized inverse of G from B-inverse, IUseBI=4.
 Internal  Forces:  Max     0.000425406 RMS     0.000082799
 Search for a local minimum.
 Step number   3 out of a maximum of   38
 All quantities printed in internal units (Hartrees-Bohrs-Radians)
 Mixed Optimization -- En-DIIS/RFO-DIIS
 Swapping is turned off.
 Update second derivatives using D2CorX and points    1    2    3
 DE= -1.45D-05 DEPred=-1.60D-05 R= 9.08D-01
 TightC=F SS=  1.41D+00  RLast= 1.43D-02 DXNew= 5.0454D-01 4.2889D-02
 Trust test= 9.08D-01 RLast= 1.43D-02 DXMaxT set to 3.00D-01
 ITU=  1  1  0
     Eigenvalues ---    0.00280   0.05432   0.05432   0.05432   0.05432
     Eigenvalues ---    0.12381   0.16000   0.16000   0.16000   0.16000
     Eigenvalues ---    0.16000   0.30410   0.34444   0.34549   0.34549
     Eigenvalues ---    0.34549   0.34550   0.34550
 En-DIIS/RFO-DIIS IScMMF=        0 using points:     3    2
 RFO step:  Lambda=-3.48090400D-07.
 DidBck=F Rises=F RFO-DIIS coefs:    0.90944    0.09056
 Iteration  1 RMS(Cart)=  0.00044982 RMS(Int)=  0.00000022
 Iteration  2 RMS(Cart)=  0.00000001 RMS(Int)=  0.00000022
 ClnCor:  largest displacement from symmetrization is 9.83D-09 for atom     8.
 Variable       Old X    -DE/DX   Delta X   Delta X   Delta X     New X
                                 (Linear)    (Quad)   (Total)
    R1        2.88235   0.00043   0.00090   0.00050   0.00140   2.88375
    R2        2.06598   0.00000  -0.00009   0.00008  -0.00001   2.06596
    R3        2.06598   0.00000  -0.00009   0.00008  -0.00001   2.06596
    R4        2.06598   0.00000  -0.00009   0.00008  -0.00001   2.06596
    R5        2.06598   0.00000  -0.00009   0.00008  -0.00001   2.06596
    R6        2.06598   0.00000  -0.00009   0.00008  -0.00001   2.06596
    R7        2.06598   0.00000  -0.00009   0.00008  -0.00001   2.06596
    A1        1.94047   0.00003  -0.00025   0.00035   0.00010   1.94057
    A2        1.94047   0.00003  -0.00025   0.00035   0.00010   1.94057
    A3        1.94047   0.00003  -0.00025   0.00035   0.00010   1.94057
    A4        1.87987  -0.00003   0.00027  -0.00037  -0.00010   1.87977
    A5        1.87987  -0.00003   0.00027  -0.00037  -0.00010   1.87977
    A6        1.87987  -0.00003   0.00027  -0.00037  -0.00010   1.87977
    A7        1.94047   0.00003  -0.00025   0.00035   0.00010   1.94057
    A8        1.94047   0.00003  -0.00025   0.00035   0.00010   1.94057
    A9        1.94047   0.00003  -0.00025   0.00035   0.00010   1.94057
   A10        1.87987  -0.00003   0.00027  -0.00037  -0.00010   1.87977
   A11        1.87987  -0.00003   0.00027  -0.00037  -0.00010   1.87977
   A12        1.87987  -0.00003   0.00027  -0.00037  -0.00010   1.87977
    D1        1.04720   0.00000   0.00000   0.00000   0.00000   1.04720
    D2       -1.04720   0.00000   0.00000   0.00000   0.00000  -1.04720
    D3        3.14159   0.00000   0.00000   0.00000   0.00000   3.14159
    D4       -1.04720   0.00000   0.00000   0.00000   0.00000  -1.04720
    D5        3.14159   0.00000   0.00000   0.00000   0.00000   3.14159
    D6        1.04720   0.00000   0.00000   0.00000   0.00000   1.04720
    D7        3.14159   0.00000   0.00000   0.00000   0.00000   3.14159
    D8        1.04720   0.00000   0.00000   0.00000   0.00000   1.04720
    D9       -1.04720   0.00000   0.00000   0.00000   0.00000  -1.04720
         Item               Value     Threshold  Converged?
 Maximum Force            0.000425     0.000450     YES
 RMS     Force            0.000083     0.000300     YES
 Maximum Displacement     0.000882     0.001800     YES
 RMS     Displacement     0.000450     0.001200     YES
 Predicted change in Energy=-3.156045D-07
 Optimization completed.
    -- Stationary point found.
                           ----------------------------
                           !   Optimized Parameters   !
                           ! (Angstroms and Degrees)  !
 --------------------------                            --------------------------
 ! Name  Definition              Value          Derivative Info.                !
 --------------------------------------------------------------------------------
 ! R1    R(1,2)                  1.5253         -DE/DX =    0.0004              !
 ! R2    R(1,3)                  1.0933         -DE/DX =    0.0                 !
 ! R3    R(1,4)                  1.0933         -DE/DX =    0.0                 !
 ! R4    R(1,5)                  1.0933         -DE/DX =    0.0                 !
 ! R5    R(2,6)                  1.0933         -DE/DX =    0.0                 !
 ! R6    R(2,7)                  1.0933         -DE/DX =    0.0                 !
 ! R7    R(2,8)                  1.0933         -DE/DX =    0.0                 !
 ! A1    A(2,1,3)              111.1808         -DE/DX =    0.0                 !
 ! A2    A(2,1,4)              111.1808         -DE/DX =    0.0                 !
 ! A3    A(2,1,5)              111.1808         -DE/DX =    0.0                 !
 ! A4    A(3,1,4)              107.7088         -DE/DX =    0.0                 !
 ! A5    A(3,1,5)              107.7088         -DE/DX =    0.0                 !
 ! A6    A(4,1,5)              107.7088         -DE/DX =    0.0                 !
 ! A7    A(1,2,6)              111.1808         -DE/DX =    0.0                 !
 ! A8    A(1,2,7)              111.1808         -DE/DX =    0.0                 !
 ! A9    A(1,2,8)              111.1808         -DE/DX =    0.0                 !
 ! A10   A(6,2,7)              107.7088         -DE/DX =    0.0                 !
 ! A11   A(6,2,8)              107.7088         -DE/DX =    0.0                 !
 ! A12   A(7,2,8)              107.7088         -DE/DX =    0.0                 !
 ! D1    D(3,1,2,6)             60.0            -DE/DX =    0.0                 !
 ! D2    D(3,1,2,7)            -60.0            -DE/DX =    0.0                 !
 ! D3    D(3,1,2,8)            180.0            -DE/DX =    0.0                 !
 ! D4    D(4,1,2,6)            -60.0            -DE/DX =    0.0                 !
 ! D5    D(4,1,2,7)            180.0            -DE/DX =    0.0                 !
 ! D6    D(4,1,2,8)             60.0            -DE/DX =    0.0                 !
 ! D7    D(5,1,2,6)            180.0            -DE/DX =    0.0                 !
 ! D8    D(5,1,2,7)             60.0            -DE/DX =    0.0                 !
 ! D9    D(5,1,2,8)            -60.0            -DE/DX =    0.0                 !
 --------------------------------------------------------------------------------
 GradGradGradGradGradGradGradGradGradGradGradGradGradGradGradGradGradGrad

                          Input orientation:                          
 ---------------------------------------------------------------------
 Center     Atomic      Atomic             Coordinates (Angstroms)
 Number     Number       Type             X           Y           Z
 ---------------------------------------------------------------------
      1          6           0       -6.381974    0.650714    0.000000
      2          6           0       -4.858736    0.571916    0.000000
      3          1           0       -6.759216    1.004435    0.963225
      4          1           0       -6.828173   -0.328601   -0.192569
      5          1           0       -6.741983    1.337528   -0.770659
      6          1           0       -4.498727   -0.114898    0.770659
      7          1           0       -4.412537    1.551231    0.192569
      8          1           0       -4.481494    0.218195   -0.963225
 ---------------------------------------------------------------------
                    Distance matrix (angstroms):
                    1          2          3          4          5
     1  C    0.000000
     2  C    1.525274   0.000000
     3  H    1.093267   2.174096   0.000000
     4  H    1.093267   2.174096   1.765673   0.000000
     5  H    1.093267   2.174096   1.765673   1.765673   0.000000
     6  H    2.174096   1.093267   2.529782   2.529782   3.085027
     7  H    2.174096   1.093267   2.529782   3.085028   2.529782
     8  H    2.174096   1.093267   3.085028   2.529782   2.529782
                    6          7          8
     6  H    0.000000
     7  H    1.765673   0.000000
     8  H    1.765673   1.765673   0.000000
 Stoichiometry    C2H6
 Framework group  CI[X(C2H6)]
 Deg. of freedom     9
 Full point group                 CI      NOp   2
 Largest Abelian subgroup         CI      NOp   2
 Largest concise Abelian subgroup CI      NOp   2
                         Standard orientation:                         
 ---------------------------------------------------------------------
 Center     Atomic      Atomic             Coordinates (Angstroms)
 Number     Number       Type             X           Y           Z
 ---------------------------------------------------------------------
      1          6           0       -0.761619    0.039399    0.000000
      2          6           0        0.761619   -0.039399    0.000000
      3          1           0       -1.138861    0.393120    0.963225
      4          1           0       -1.207818   -0.939916   -0.192569
      5          1           0       -1.121628    0.726213   -0.770659
      6          1           0        1.121628   -0.726213    0.770659
      7          1           0        1.207818    0.939916    0.192569
      8          1           0        1.138861   -0.393120   -0.963225
 ---------------------------------------------------------------------
 Rotational constants (GHZ):     80.4232630     20.0510863     20.0510857

 **********************************************************************

            Population analysis using the SCF density.

 **********************************************************************

 Orbital symmetries:
       Occupied  (AG) (AU) (AG) (AU) (AU) (AU) (AG) (AG) (AG)
       Virtual   (AG) (AU) (AU) (AU) (AG) (AG) (AU) (AG) (AU) (AU)
                 (AG) (AG) (AU) (AU) (AU) (AG) (AG) (AG) (AU) (AG)
                 (AU) (AU) (AU) (AG) (AG) (AG) (AU) (AU) (AG) (AG)
                 (AU) (AG) (AU)
 The electronic state is 1-AG.
 Alpha  occ. eigenvalues --  -11.21313 -11.21254  -1.01755  -0.84014  -0.59633
 Alpha  occ. eigenvalues --   -0.59633  -0.50959  -0.48581  -0.48581
 Alpha virt. eigenvalues --    0.24170   0.30137   0.31517   0.31517   0.33766
 Alpha virt. eigenvalues --    0.33766   0.41302   0.70663   0.74163   0.74163
 Alpha virt. eigenvalues --    0.84957   0.84958   0.94349   1.15284   1.15284
 Alpha virt. eigenvalues --    1.20076   1.20144   1.20144   1.25437   1.27618
 Alpha virt. eigenvalues --    1.68665   1.80291   1.80291   2.25604   2.29267
 Alpha virt. eigenvalues --    2.29267   2.61288   2.61288   2.67205   2.67205
 Alpha virt. eigenvalues --    2.94010   4.57622   4.79407
          Condensed to atoms (all electrons):
               1          2          3          4          5          6
     1  C    5.077965   0.326111   0.394157   0.394157   0.394157  -0.037840
     2  C    0.326111   5.077965  -0.037840  -0.037840  -0.037840   0.394157
     3  H    0.394157  -0.037840   0.546313  -0.029255  -0.029255  -0.002878
     4  H    0.394157  -0.037840  -0.029255   0.546313  -0.029255  -0.002878
     5  H    0.394157  -0.037840  -0.029255  -0.029255   0.546314   0.003960
     6  H   -0.037840   0.394157  -0.002878  -0.002878   0.003960   0.546314
     7  H   -0.037840   0.394157  -0.002878   0.003960  -0.002878  -0.029255
     8  H   -0.037840   0.394157   0.003960  -0.002878  -0.002878  -0.029255
               7          8
     1  C   -0.037840  -0.037840
     2  C    0.394157   0.394157
     3  H   -0.002878   0.003960
     4  H    0.003960  -0.002878
     5  H   -0.002878  -0.002878
     6  H   -0.029255  -0.029255
     7  H    0.546313  -0.029255
     8  H   -0.029255   0.546313
 Mulliken charges:
               1
     1  C   -0.473028
     2  C   -0.473028
     3  H    0.157676
     4  H    0.157676
     5  H    0.157676
     6  H    0.157676
     7  H    0.157676
     8  H    0.157676
 Sum of Mulliken charges =   0.00000
 Mulliken charges with hydrogens summed into heavy atoms:
               1
     1  C    0.000000
     2  C    0.000000
 Electronic spatial extent (au):  <R**2>=            109.7337
 Charge=              0.0000 electrons
 Dipole moment (field-independent basis, Debye):
    X=              0.0000    Y=              0.0000    Z=              0.0000  Tot=              0.0000
 Quadrupole moment (field-independent basis, Debye-Ang):
   XX=            -15.6017   YY=            -14.9506   ZZ=            -14.9488
   XY=              0.0338   XZ=              0.0000   YZ=              0.0000
 Traceless Quadrupole moment (field-independent basis, Debye-Ang):
   XX=             -0.4347   YY=              0.2165   ZZ=              0.2182
   XY=              0.0338   XZ=              0.0000   YZ=              0.0000
 Octapole moment (field-independent basis, Debye-Ang**2):
  XXX=              0.0000  YYY=              0.0000  ZZZ=              0.0000  XYY=              0.0000
  XXY=              0.0000  XXZ=              0.0000  XZZ=              0.0000  YZZ=              0.0000
  YYZ=              0.0000  XYZ=              0.0000
 Hexadecapole moment (field-independent basis, Debye-Ang**3):
 XXXX=            -93.2990 YYYY=            -29.3101 ZZZZ=            -28.9369 XXXY=              1.8286
 XXXZ=              0.0054 YYYX=              2.5507 YYYZ=             -0.1045 ZZZX=             -0.6753
 ZZZY=              0.0349 XXYY=            -19.3054 XXZZ=            -19.4803 YYZZ=             -9.5628
 XXYZ=              0.0696 YYXZ=              0.6698 ZZXY=             -0.5458
 N-N= 4.224530744843D+01 E-N=-2.681722789084D+02  KE= 7.913910520861D+01
 Symmetry AG   KE= 4.106728205220D+01
 Symmetry AU   KE= 3.807182315642D+01
 1\1\GINC-N0286\FOpt\RMP2-FC\6-31G(d)\C2H6\GDAVIDS3\21-Feb-2017\0\\#n M
 P2/6-31G(d) Opt\\Ethane MP2 6-31Gd\\0,1\C,-6.3819735231,0.6507138805,-
 0.0000003994\C,-4.8587364769,0.5719161195,0.0000003994\H,-6.7592155448
 ,1.004435241,0.9632251321\H,-6.8281733254,-0.3286005089,-0.1925691597\
 H,-6.7419826098,1.3375277278,-0.7706585141\H,-4.4987273902,-0.11489772
 78,0.7706585141\H,-4.4125366746,1.5512305089,0.1925691597\H,-4.4814944
 552,0.218194759,-0.9632251321\\Version=ES64L-G09RevE.01\State=1-AG\HF=
 -79.2285161\MP2=-79.4947417\RMSD=3.831e-09\RMSF=1.009e-04\Dipole=0.,0.
 ,0.\PG=CI [X(C2H6)]\\@


 A DANDELION FROM A LOVER MEANS MORE THAN AN ORCHID FROM A FRIEND.
 Job cpu time:       0 days  0 hours  0 minutes 33.5 seconds.
 File lengths (MBytes):  RWF=      5 Int=      0 D2E=      0 Chk=      1 Scr=      1
 Normal termination of Gaussian 09 at Tue Feb 21 17:44:24 2017.
