 Entering Gaussian System, Link 0=g09
 Input=BMI_MTS_3.com
 Output=BMI_MTS_3.log
 Initial command:
 /gscratch/pfaendtner/codes/G09/g09/l1.exe /gscratch/pfaendtner/wesley/gaussian/Gau-31549.inp -scrdir=/gscratch/pfaendtner/wesley/gaussian/
 Entering Link 1 = /gscratch/pfaendtner/codes/G09/g09/l1.exe PID=     31558.
  
 Copyright (c) 1988,1990,1992,1993,1995,1998,2003,2009, Gaussian, Inc.
                  All Rights Reserved.
  
 This is part of the Gaussian(R) 09 program.  It is based on
 the Gaussian(R) 03 system (copyright 2003, Gaussian, Inc.),
 the Gaussian(R) 98 system (copyright 1998, Gaussian, Inc.),
 the Gaussian(R) 94 system (copyright 1995, Gaussian, Inc.),
 the Gaussian 92(TM) system (copyright 1992, Gaussian, Inc.),
 the Gaussian 90(TM) system (copyright 1990, Gaussian, Inc.),
 the Gaussian 88(TM) system (copyright 1988, Gaussian, Inc.),
 the Gaussian 86(TM) system (copyright 1986, Carnegie Mellon
 University), and the Gaussian 82(TM) system (copyright 1983,
 Carnegie Mellon University). Gaussian is a federally registered
 trademark of Gaussian, Inc.
  
 This software contains proprietary and confidential information,
 including trade secrets, belonging to Gaussian, Inc.
  
 This software is provided under written license and may be
 used, copied, transmitted, or stored only in accord with that
 written license.
  
 The following legend is applicable only to US Government
 contracts under FAR:
  
                    RESTRICTED RIGHTS LEGEND
  
 Use, reproduction and disclosure by the US Government is
 subject to restrictions as set forth in subparagraphs (a)
 and (c) of the Commercial Computer Software - Restricted
 Rights clause in FAR 52.227-19.
  
 Gaussian, Inc.
 340 Quinnipiac St., Bldg. 40, Wallingford CT 06492
  
  
 ---------------------------------------------------------------
 Warning -- This program may not be used in any manner that
 competes with the business of Gaussian, Inc. or will provide
 assistance to any competitor of Gaussian, Inc.  The licensee
 of this program is prohibited from giving any competitor of
 Gaussian, Inc. access to this program.  By using this program,
 the user acknowledges that Gaussian, Inc. is engaged in the
 business of creating and licensing software in the field of
 computational chemistry and represents and warrants to the
 licensee that it is not a competitor of Gaussian, Inc. and that
 it will not use this program in any manner prohibited above.
 ---------------------------------------------------------------
  

 Cite this work as:
 Gaussian 09, Revision A.02,
 M. J. Frisch, G. W. Trucks, H. B. Schlegel, G. E. Scuseria, 
 M. A. Robb, J. R. Cheeseman, G. Scalmani, V. Barone, B. Mennucci, 
 G. A. Petersson, H. Nakatsuji, M. Caricato, X. Li, H. P. Hratchian, 
 A. F. Izmaylov, J. Bloino, G. Zheng, J. L. Sonnenberg, M. Hada, 
 M. Ehara, K. Toyota, R. Fukuda, J. Hasegawa, M. Ishida, T. Nakajima, 
 Y. Honda, O. Kitao, H. Nakai, T. Vreven, J. A. Montgomery, Jr., 
 J. E. Peralta, F. Ogliaro, M. Bearpark, J. J. Heyd, E. Brothers, 
 K. N. Kudin, V. N. Staroverov, R. Kobayashi, J. Normand, 
 K. Raghavachari, A. Rendell, J. C. Burant, S. S. Iyengar, J. Tomasi, 
 M. Cossi, N. Rega, J. M. Millam, M. Klene, J. E. Knox, J. B. Cross, 
 V. Bakken, C. Adamo, J. Jaramillo, R. Gomperts, R. E. Stratmann, 
 O. Yazyev, A. J. Austin, R. Cammi, C. Pomelli, J. W. Ochterski, 
 R. L. Martin, K. Morokuma, V. G. Zakrzewski, G. A. Voth, 
 P. Salvador, J. J. Dannenberg, S. Dapprich, A. D. Daniels, 
 O. Farkas, J. B. Foresman, J. V. Ortiz, J. Cioslowski, 
 and D. J. Fox, Gaussian, Inc., Wallingford CT, 2009.
 
 ******************************************
 Gaussian 09:  EM64L-G09RevA.02 11-Jun-2009
                13-Mar-2017 
 ******************************************
 %chk=BMI_MTS_3.chk
 %nprocshared=2
 Will use up to    2 processors via shared memory.
 --------------------------------------
 # opt M062X/6-311+G* geom=connectivity
 --------------------------------------
 1/14=-1,18=20,19=15,26=3,38=1,57=2/1,3;
 2/9=110,12=2,17=6,18=5,40=1/2;
 3/5=4,6=6,7=11,11=2,16=1,25=1,30=1,71=1,74=-55/1,2,3;
 4//1;
 5/5=2,38=5/2;
 6/7=2,8=2,9=2,10=2,28=1/1;
 7//1,2,3,16;
 1/14=-1,18=20,19=15/3(2);
 2/9=110/2;
 99//99;
 2/9=110/2;
 3/5=4,6=6,7=11,11=2,16=1,25=1,30=1,71=1,74=-55/1,2,3;
 4/5=5,16=3/1;
 5/5=2,38=5/2;
 7//1,2,3,16;
 1/14=-1,18=20,19=15/3(-5);
 2/9=110/2;
 6/7=2,8=2,9=2,10=2,19=2,28=1/1;
 99/9=1/99;
 -------------------
 Title Card Required
 -------------------
 Symbolic Z-matrix:
 Charge =  0 Multiplicity = 1
 C                    -1.12041  -2.97501   0.32283 
 C                     0.13975  -2.93333   0.79161 
 C                    -0.92352  -1.24888   1.57011 
 N                    -1.75732  -1.91457   0.82427 
 H                    -1.53356  -3.71697  -0.32809 
 H                     0.91983  -3.63584   0.58456 
 H                    -1.15182  -0.3501    2.10394 
 N                     0.23178  -1.84879   1.56421 
 C                     1.43372  -1.40682   2.28594 
 H                     2.0263   -2.25859   2.54714 
 H                     2.00505  -0.75307   1.66057 
 H                     1.14469  -0.88708   3.17546 
 C                    -3.16191  -1.55879   0.57638 
 H                    -3.27488  -0.49597   0.62685 
 H                    -3.45082  -1.90246  -0.39487 
 C                    -4.05496  -2.22112   1.64191 
 H                    -3.94199  -3.28394   1.59144 
 H                    -3.76605  -1.87746   2.61316 
 C                    -5.52644  -1.8484    1.38222 
 H                    -5.63942  -0.78558   1.43269 
 H                    -5.81535  -2.19207   0.41097 
 C                    -6.4195   -2.51074   2.44775 
 H                    -6.13059  -2.16707   3.419 
 H                    -7.44189  -2.25177   2.26731 
 H                    -6.30652  -3.57356   2.39728 
 S                     0.125    -0.728    -1.43095 
 O                     0.10001  -2.18856  -1.27017 
 O                     0.77377  -0.38641  -2.70459 
 O                    -1.25073  -0.21122  -1.4279 
 O                     0.97951  -0.04368  -0.16983 
 C                     2.31818  -0.54654  -0.17281 
 H                     2.79054  -0.29783  -1.10013 
 H                     2.86568  -0.10808   0.63521 
 H                     2.29998  -1.60996  -0.05574 
 

 GradGradGradGradGradGradGradGradGradGradGradGradGradGradGradGradGradGrad
 Berny optimization.
 Initialization pass.
                           ----------------------------
                           !    Initial Parameters    !
                           ! (Angstroms and Degrees)  !
 --------------------------                            --------------------------
 ! Name  Definition              Value          Derivative Info.                !
 --------------------------------------------------------------------------------
 ! R1    R(1,2)                  1.3452         estimate D2E/DX2                !
 ! R2    R(1,4)                  1.3348         estimate D2E/DX2                !
 ! R3    R(1,5)                  1.07           estimate D2E/DX2                !
 ! R4    R(2,6)                  1.07           estimate D2E/DX2                !
 ! R5    R(2,8)                  1.3348         estimate D2E/DX2                !
 ! R6    R(3,4)                  1.3018         estimate D2E/DX2                !
 ! R7    R(3,7)                  1.07           estimate D2E/DX2                !
 ! R8    R(3,8)                  1.3018         estimate D2E/DX2                !
 ! R9    R(4,13)                 1.47           estimate D2E/DX2                !
 ! R10   R(8,9)                  1.47           estimate D2E/DX2                !
 ! R11   R(9,10)                 1.07           estimate D2E/DX2                !
 ! R12   R(9,11)                 1.07           estimate D2E/DX2                !
 ! R13   R(9,12)                 1.07           estimate D2E/DX2                !
 ! R14   R(11,31)                1.8714         estimate D2E/DX2                !
 ! R15   R(13,14)                1.07           estimate D2E/DX2                !
 ! R16   R(13,15)                1.07           estimate D2E/DX2                !
 ! R17   R(13,16)                1.54           estimate D2E/DX2                !
 ! R18   R(16,17)                1.07           estimate D2E/DX2                !
 ! R19   R(16,18)                1.07           estimate D2E/DX2                !
 ! R20   R(16,19)                1.54           estimate D2E/DX2                !
 ! R21   R(19,20)                1.07           estimate D2E/DX2                !
 ! R22   R(19,21)                1.07           estimate D2E/DX2                !
 ! R23   R(19,22)                1.54           estimate D2E/DX2                !
 ! R24   R(22,23)                1.07           estimate D2E/DX2                !
 ! R25   R(22,24)                1.07           estimate D2E/DX2                !
 ! R26   R(22,25)                1.07           estimate D2E/DX2                !
 ! R27   R(26,27)                1.4696         estimate D2E/DX2                !
 ! R28   R(26,28)                1.4696         estimate D2E/DX2                !
 ! R29   R(26,29)                1.4696         estimate D2E/DX2                !
 ! R30   R(26,30)                1.67           estimate D2E/DX2                !
 ! R31   R(30,31)                1.43           estimate D2E/DX2                !
 ! R32   R(31,32)                1.07           estimate D2E/DX2                !
 ! R33   R(31,33)                1.07           estimate D2E/DX2                !
 ! R34   R(31,34)                1.07           estimate D2E/DX2                !
 ! A1    A(2,1,4)              106.9463         estimate D2E/DX2                !
 ! A2    A(2,1,5)              126.5268         estimate D2E/DX2                !
 ! A3    A(4,1,5)              126.5268         estimate D2E/DX2                !
 ! A4    A(1,2,6)              126.5268         estimate D2E/DX2                !
 ! A5    A(1,2,8)              106.9463         estimate D2E/DX2                !
 ! A6    A(6,2,8)              126.5268         estimate D2E/DX2                !
 ! A7    A(4,3,7)              125.3602         estimate D2E/DX2                !
 ! A8    A(4,3,8)              109.2797         estimate D2E/DX2                !
 ! A9    A(7,3,8)              125.3602         estimate D2E/DX2                !
 ! A10   A(1,4,3)              108.4138         estimate D2E/DX2                !
 ! A11   A(1,4,13)             125.7931         estimate D2E/DX2                !
 ! A12   A(3,4,13)             125.7931         estimate D2E/DX2                !
 ! A13   A(2,8,3)              108.4138         estimate D2E/DX2                !
 ! A14   A(2,8,9)              125.7931         estimate D2E/DX2                !
 ! A15   A(3,8,9)              125.7931         estimate D2E/DX2                !
 ! A16   A(8,9,10)             109.4712         estimate D2E/DX2                !
 ! A17   A(8,9,11)             109.4712         estimate D2E/DX2                !
 ! A18   A(8,9,12)             109.4712         estimate D2E/DX2                !
 ! A19   A(10,9,11)            109.4712         estimate D2E/DX2                !
 ! A20   A(10,9,12)            109.4712         estimate D2E/DX2                !
 ! A21   A(11,9,12)            109.4712         estimate D2E/DX2                !
 ! A22   A(9,11,31)            136.8338         estimate D2E/DX2                !
 ! A23   A(4,13,14)            109.4712         estimate D2E/DX2                !
 ! A24   A(4,13,15)            109.4712         estimate D2E/DX2                !
 ! A25   A(4,13,16)            109.4712         estimate D2E/DX2                !
 ! A26   A(14,13,15)           109.4712         estimate D2E/DX2                !
 ! A27   A(14,13,16)           109.4712         estimate D2E/DX2                !
 ! A28   A(15,13,16)           109.4712         estimate D2E/DX2                !
 ! A29   A(13,16,17)           109.4712         estimate D2E/DX2                !
 ! A30   A(13,16,18)           109.4712         estimate D2E/DX2                !
 ! A31   A(13,16,19)           109.4712         estimate D2E/DX2                !
 ! A32   A(17,16,18)           109.4712         estimate D2E/DX2                !
 ! A33   A(17,16,19)           109.4712         estimate D2E/DX2                !
 ! A34   A(18,16,19)           109.4712         estimate D2E/DX2                !
 ! A35   A(16,19,20)           109.4712         estimate D2E/DX2                !
 ! A36   A(16,19,21)           109.4712         estimate D2E/DX2                !
 ! A37   A(16,19,22)           109.4712         estimate D2E/DX2                !
 ! A38   A(20,19,21)           109.4712         estimate D2E/DX2                !
 ! A39   A(20,19,22)           109.4712         estimate D2E/DX2                !
 ! A40   A(21,19,22)           109.4712         estimate D2E/DX2                !
 ! A41   A(19,22,23)           109.4712         estimate D2E/DX2                !
 ! A42   A(19,22,24)           109.4712         estimate D2E/DX2                !
 ! A43   A(19,22,25)           109.4712         estimate D2E/DX2                !
 ! A44   A(23,22,24)           109.4712         estimate D2E/DX2                !
 ! A45   A(23,22,25)           109.4712         estimate D2E/DX2                !
 ! A46   A(24,22,25)           109.4712         estimate D2E/DX2                !
 ! A47   A(27,26,28)           109.4712         estimate D2E/DX2                !
 ! A48   A(27,26,29)           109.4712         estimate D2E/DX2                !
 ! A49   A(27,26,30)           109.4712         estimate D2E/DX2                !
 ! A50   A(28,26,29)           109.4712         estimate D2E/DX2                !
 ! A51   A(28,26,30)           109.4712         estimate D2E/DX2                !
 ! A52   A(29,26,30)           109.4712         estimate D2E/DX2                !
 ! A53   A(26,30,31)           109.4712         estimate D2E/DX2                !
 ! A54   A(11,31,30)            83.1155         estimate D2E/DX2                !
 ! A55   A(11,31,32)           161.5471         estimate D2E/DX2                !
 ! A56   A(11,31,33)            52.4831         estimate D2E/DX2                !
 ! A57   A(11,31,34)            77.3074         estimate D2E/DX2                !
 ! A58   A(30,31,32)           109.4712         estimate D2E/DX2                !
 ! A59   A(30,31,33)           109.4712         estimate D2E/DX2                !
 ! A60   A(30,31,34)           109.4712         estimate D2E/DX2                !
 ! A61   A(32,31,33)           109.4712         estimate D2E/DX2                !
 ! A62   A(32,31,34)           109.4712         estimate D2E/DX2                !
 ! A63   A(33,31,34)           109.4712         estimate D2E/DX2                !
 ! D1    D(4,1,2,6)           -179.9998         estimate D2E/DX2                !
 ! D2    D(4,1,2,8)              0.0            estimate D2E/DX2                !
 ! D3    D(5,1,2,6)              0.0            estimate D2E/DX2                !
 ! D4    D(5,1,2,8)            179.9998         estimate D2E/DX2                !
 ! D5    D(2,1,4,3)              0.0            estimate D2E/DX2                !
 ! D6    D(2,1,4,13)           180.0            estimate D2E/DX2                !
 ! D7    D(5,1,4,3)           -179.9998         estimate D2E/DX2                !
 ! D8    D(5,1,4,13)             0.0002         estimate D2E/DX2                !
 ! D9    D(1,2,8,3)              0.0            estimate D2E/DX2                !
 ! D10   D(1,2,8,9)            180.0            estimate D2E/DX2                !
 ! D11   D(6,2,8,3)            179.9998         estimate D2E/DX2                !
 ! D12   D(6,2,8,9)             -0.0002         estimate D2E/DX2                !
 ! D13   D(7,3,4,1)            179.9998         estimate D2E/DX2                !
 ! D14   D(7,3,4,13)            -0.0002         estimate D2E/DX2                !
 ! D15   D(8,3,4,1)              0.0            estimate D2E/DX2                !
 ! D16   D(8,3,4,13)           180.0            estimate D2E/DX2                !
 ! D17   D(4,3,8,2)              0.0            estimate D2E/DX2                !
 ! D18   D(4,3,8,9)           -180.0            estimate D2E/DX2                !
 ! D19   D(7,3,8,2)           -179.9998         estimate D2E/DX2                !
 ! D20   D(7,3,8,9)              0.0002         estimate D2E/DX2                !
 ! D21   D(1,4,13,14)         -150.0            estimate D2E/DX2                !
 ! D22   D(1,4,13,15)          -30.0            estimate D2E/DX2                !
 ! D23   D(1,4,13,16)           90.0            estimate D2E/DX2                !
 ! D24   D(3,4,13,14)           30.0            estimate D2E/DX2                !
 ! D25   D(3,4,13,15)          150.0            estimate D2E/DX2                !
 ! D26   D(3,4,13,16)          -90.0            estimate D2E/DX2                !
 ! D27   D(2,8,9,10)           -30.0            estimate D2E/DX2                !
 ! D28   D(2,8,9,11)            90.0            estimate D2E/DX2                !
 ! D29   D(2,8,9,12)          -150.0            estimate D2E/DX2                !
 ! D30   D(3,8,9,10)           150.0            estimate D2E/DX2                !
 ! D31   D(3,8,9,11)           -90.0            estimate D2E/DX2                !
 ! D32   D(3,8,9,12)            30.0            estimate D2E/DX2                !
 ! D33   D(8,9,11,31)          -30.78           estimate D2E/DX2                !
 ! D34   D(10,9,11,31)          89.22           estimate D2E/DX2                !
 ! D35   D(12,9,11,31)        -150.78           estimate D2E/DX2                !
 ! D36   D(9,11,31,30)          72.9809         estimate D2E/DX2                !
 ! D37   D(9,11,31,32)        -152.6793         estimate D2E/DX2                !
 ! D38   D(9,11,31,33)        -165.9542         estimate D2E/DX2                !
 ! D39   D(9,11,31,34)         -38.8185         estimate D2E/DX2                !
 ! D40   D(4,13,16,17)         -60.0            estimate D2E/DX2                !
 ! D41   D(4,13,16,18)          60.0            estimate D2E/DX2                !
 ! D42   D(4,13,16,19)         180.0            estimate D2E/DX2                !
 ! D43   D(14,13,16,17)       -180.0            estimate D2E/DX2                !
 ! D44   D(14,13,16,18)        -60.0            estimate D2E/DX2                !
 ! D45   D(14,13,16,19)         60.0            estimate D2E/DX2                !
 ! D46   D(15,13,16,17)         60.0            estimate D2E/DX2                !
 ! D47   D(15,13,16,18)        180.0            estimate D2E/DX2                !
 ! D48   D(15,13,16,19)        -60.0            estimate D2E/DX2                !
 ! D49   D(13,16,19,20)        -60.0            estimate D2E/DX2                !
 ! D50   D(13,16,19,21)         60.0            estimate D2E/DX2                !
 ! D51   D(13,16,19,22)        180.0            estimate D2E/DX2                !
 ! D52   D(17,16,19,20)        180.0            estimate D2E/DX2                !
 ! D53   D(17,16,19,21)        -60.0            estimate D2E/DX2                !
 ! D54   D(17,16,19,22)         60.0            estimate D2E/DX2                !
 ! D55   D(18,16,19,20)         60.0            estimate D2E/DX2                !
 ! D56   D(18,16,19,21)        180.0            estimate D2E/DX2                !
 ! D57   D(18,16,19,22)        -60.0            estimate D2E/DX2                !
 ! D58   D(16,19,22,23)         60.0            estimate D2E/DX2                !
 ! D59   D(16,19,22,24)        180.0            estimate D2E/DX2                !
 ! D60   D(16,19,22,25)        -60.0            estimate D2E/DX2                !
 ! D61   D(20,19,22,23)        -60.0            estimate D2E/DX2                !
 ! D62   D(20,19,22,24)         60.0            estimate D2E/DX2                !
 ! D63   D(20,19,22,25)       -180.0            estimate D2E/DX2                !
 ! D64   D(21,19,22,23)        180.0            estimate D2E/DX2                !
 ! D65   D(21,19,22,24)        -60.0            estimate D2E/DX2                !
 ! D66   D(21,19,22,25)         60.0            estimate D2E/DX2                !
 ! D67   D(27,26,30,31)         60.0            estimate D2E/DX2                !
 ! D68   D(28,26,30,31)        -60.0            estimate D2E/DX2                !
 ! D69   D(29,26,30,31)        180.0            estimate D2E/DX2                !
 ! D70   D(26,30,31,11)       -133.8932         estimate D2E/DX2                !
 ! D71   D(26,30,31,32)         60.0            estimate D2E/DX2                !
 ! D72   D(26,30,31,33)       -180.0            estimate D2E/DX2                !
 ! D73   D(26,30,31,34)        -60.0            estimate D2E/DX2                !
 --------------------------------------------------------------------------------
 Trust Radius=3.00D-01 FncErr=1.00D-07 GrdErr=1.00D-06
 Number of steps in this run= 180 maximum allowed number of steps= 204.
 GradGradGradGradGradGradGradGradGradGradGradGradGradGradGradGradGradGrad

                          Input orientation:                          
 ---------------------------------------------------------------------
 Center     Atomic      Atomic             Coordinates (Angstroms)
 Number     Number       Type             X           Y           Z
 ---------------------------------------------------------------------
      1          6           0       -1.120410   -2.975007    0.322830
      2          6           0        0.139747   -2.933334    0.791606
      3          6           0       -0.923516   -1.248877    1.570105
      4          7           0       -1.757316   -1.914567    0.824274
      5          1           0       -1.533559   -3.716968   -0.328093
      6          1           0        0.919826   -3.635836    0.584561
      7          1           0       -1.151825   -0.350104    2.103943
      8          7           0        0.231776   -1.848789    1.564212
      9          6           0        1.433719   -1.406816    2.285942
     10          1           0        2.026299   -2.258593    2.547140
     11          1           0        2.005052   -0.753067    1.660571
     12          1           0        1.144688   -0.887080    3.175457
     13          6           0       -3.161906   -1.558791    0.576380
     14          1           0       -3.274882   -0.495970    0.626851
     15          1           0       -3.450816   -1.902455   -0.394870
     16          6           0       -4.054965   -2.221122    1.641914
     17          1           0       -3.941988   -3.283944    1.591443
     18          1           0       -3.766055   -1.877458    2.613164
     19          6           0       -5.526440   -1.848405    1.382215
     20          1           0       -5.639416   -0.785583    1.432686
     21          1           0       -5.815350   -2.192069    0.410965
     22          6           0       -6.419498   -2.510736    2.447749
     23          1           0       -6.130588   -2.167072    3.418999
     24          1           0       -7.441887   -2.251770    2.267309
     25          1           0       -6.306522   -3.573557    2.397278
     26         16           0        0.125005   -0.727997   -1.430955
     27          8           0        0.100006   -2.188561   -1.270167
     28          8           0        0.773775   -0.386414   -2.704588
     29          8           0       -1.250732   -0.211216   -1.427896
     30          8           0        0.979512   -0.043681   -0.169833
     31          6           0        2.318178   -0.546537   -0.172809
     32          1           0        2.790541   -0.297834   -1.100128
     33          1           0        2.865677   -0.108083    0.635215
     34          1           0        2.299977   -1.609958   -0.055742
 ---------------------------------------------------------------------
                    Distance matrix (angstroms):
                    1          2          3          4          5
     1  C    0.000000
     2  C    1.345170   0.000000
     3  C    2.138688   2.138688   0.000000
     4  N    1.334777   2.153556   1.301780   0.000000
     5  H    1.070000   2.160500   3.172820   2.150969   0.000000
     6  H    2.160500   1.070000   3.172820   3.191758   2.618896
     7  H    3.172297   3.172297   1.070000   2.109909   4.170887
     8  N    2.153556   1.334777   1.301780   2.123281   3.191758
     9  C    3.582821   2.497531   2.468587   3.546405   4.579817
    10  H    3.919513   2.663880   3.267344   4.171614   4.802751
    11  H    4.061414   2.998004   2.971620   4.025406   5.026059
    12  H    4.198522   3.298455   2.643013   3.873683   5.239860
    13  C    2.497531   3.582821   2.468587   1.470000   2.850845
    14  H    3.298455   4.198522   2.643013   2.086720   3.784040
    15  H    2.663880   3.919513   3.267344   2.086720   2.640605
    16  C    3.304533   4.338880   3.279693   2.457987   3.532134
    17  H    3.109039   4.174115   3.640484   2.690081   3.110091
    18  H    3.667380   4.437142   3.092428   2.690081   4.125388
    19  C    4.669542   5.799273   4.645604   3.810770   4.728613
    20  H    5.142642   6.198592   4.740594   4.088455   5.343353
    21  H    4.760590   6.013114   5.115002   4.088455   4.604917
    22  C    5.728103   6.778282   5.706870   4.972628   5.747409
    23  H    5.944822   6.841598   5.601347   5.091352   6.129891
    24  H    6.653205   7.753928   6.631820   5.874555   6.617497
    25  H    5.617594   6.674014   5.921580   5.091352   5.498127
    26  S    3.110607   3.131055   3.221347   3.168144   3.591808
    27  O    2.155355   2.192527   3.161922   2.812721   2.427357
    28  O    4.410671   4.371747   4.679492   4.603753   4.697245
    29  O    3.274228   3.777506   3.189329   2.868850   3.685086
    30  O    3.639377   3.159061   2.846296   3.461025   4.453494
    31  C    4.238751   3.372308   3.746948   4.413087   4.991155
    32  H    4.948495   4.189419   4.672136   5.196167   5.566359
    33  H    4.919932   3.929020   4.066131   4.967011   5.771074
    34  H    3.702124   2.671313   3.628314   4.162792   4.382883
                    6          7          8          9         10
     6  H    0.000000
     7  H    4.170887   0.000000
     8  N    2.150969   2.109909   0.000000
     9  C    2.850845   2.799071   1.470000   0.000000
    10  H    2.640606   3.733527   2.086720   1.070000   0.000000
    11  H    3.262801   3.213227   2.086720   1.070000   1.747303
    12  H    3.784041   2.590455   2.086720   1.070000   1.747303
    13  C    4.579817   2.799071   3.546405   4.905656   5.593844
    14  H    5.239859   2.590453   3.873683   5.074756   5.907357
    15  H    4.802750   3.733526   4.171614   5.593844   6.227443
    16  C    5.279011   3.484595   4.303582   5.586010   6.148383
    17  H    4.977438   4.081064   4.413697   5.736215   6.130674
    18  H    5.400426   3.070231   4.133252   5.231273   5.805255
    19  C    6.736877   4.680069   5.761091   7.032462   7.653049
    20  H    7.201869   4.558366   5.968132   7.151448   7.885109
    21  H    6.890370   5.292208   6.165675   7.528688   8.127676
    22  C    7.655260   5.703939   6.742275   7.932077   8.450145
    23  H    7.739487   5.460662   6.634849   7.686387   8.203860
    24  H    8.640922   6.573272   7.716336   8.915754   9.472323
    25  H    7.450499   6.086674   6.813088   8.038563   8.437269
    26  S    3.626233   3.777380   3.199781   3.998606   4.667214
    27  O    2.491330   4.041240   2.857712   3.877606   4.276371
    28  O    4.625860   5.179886   4.544773   5.136355   5.714414
    29  O    4.526514   3.535952   3.719165   4.735855   5.543609
    30  O    3.671001   3.131541   2.612362   2.845219   3.658352
    31  C    3.474588   4.154889   3.011009   2.750965   3.227144
    32  H    4.180910   5.080457   4.006426   3.812648   4.210844
    33  H    4.029137   4.284397   3.290976   2.542069   2.997450
    34  H    2.533571   4.262206   2.637943   2.505026   2.696409
                   11         12         13         14         15
    11  H    0.000000
    12  H    1.747303   0.000000
    13  C    5.340610   5.074756   0.000000
    14  H    5.386314   5.116733   1.070000   0.000000
    15  H    5.942426   5.907357   1.070000   1.747303   0.000000
    16  C    6.235330   5.582814   1.540000   2.148263   2.148263
    17  H    6.463545   5.841946   2.148263   3.024610   2.468846
    18  H    5.956288   5.041073   2.148263   2.468846   3.024610
    19  C    7.615814   6.974511   2.514809   2.732978   2.732978
    20  H    7.647933   7.005113   2.732978   2.514809   3.062243
    21  H    8.049281   7.601811   2.732978   3.062243   2.514809
    22  C    8.641881   7.770632   3.875582   4.154945   4.154945
    23  H    8.442756   7.391031   4.154945   4.329403   4.668704
    24  H    9.584305   8.741646   4.653783   4.810184   4.810184
    25  H    8.807961   7.958847   4.154945   4.668704   4.329403
    26  S    3.618389   4.720602   3.939974   3.980908   3.903757
    27  O    3.778766   4.748556   3.800844   4.225330   3.668288
    28  O    4.550285   5.912967   5.256311   5.244245   5.047806
    29  O    4.520217   5.233133   3.079881   2.898319   2.961047
    30  O    2.214800   3.453921   4.472554   4.351912   4.809729
    31  C    1.871359   3.564258   5.622923   5.650162   5.930356
    32  H    2.906147   4.619163   6.311284   6.309601   6.482803
    33  H    1.485945   3.165670   6.199981   6.152803   6.646723
    34  H    1.940869   3.506834   5.498577   5.725902   5.768204
                   16         17         18         19         20
    16  C    0.000000
    17  H    1.070000   0.000000
    18  H    1.070000   1.747303   0.000000
    19  C    1.540000   2.148263   2.148263   0.000000
    20  H    2.148263   3.024610   2.468846   1.070000   0.000000
    21  H    2.148263   2.468846   3.024610   1.070000   1.747303
    22  C    2.514809   2.732978   2.732978   1.540000   2.148263
    23  H    2.732978   3.062243   2.514809   2.148263   2.468846
    24  H    3.444314   3.710993   3.710993   2.148263   2.468846
    25  H    2.732978   2.514809   3.062243   2.148263   3.024610
    26  S    5.398527   5.675225   5.728569   6.411557   6.436793
    27  O    5.073959   5.072119   5.488485   6.229585   6.497286
    28  O    6.750923   7.006425   7.149248   7.650626   7.642342
    29  O    4.618136   5.079461   5.043151   5.372038   5.270045
    30  O    5.776646   6.150005   5.798984   6.927719   6.850452
    31  C    6.834794   7.056605   6.822821   8.102530   8.121457
    32  H    7.620943   7.841451   7.698876   8.816941   8.815737
    33  H    7.305728   7.572633   7.143027   8.603159   8.569222
    34  H    6.606121   6.669151   6.632597   7.960990   8.119665
                   21         22         23         24         25
    21  H    0.000000
    22  C    2.148263   0.000000
    23  H    3.024610   1.070000   0.000000
    24  H    2.468846   1.070000   1.747303   0.000000
    25  H    2.468846   1.070000   1.747303   1.747303   0.000000
    26  S    6.389365   7.813644   8.045212   8.559024   8.007317
    27  O    6.149606   7.512033   7.798015   8.330539   7.510790
    28  O    7.508903   9.099588   9.398899   9.782454   9.290723
    29  O    5.304802   6.857446   7.150578   7.493250   7.176232
    30  O    7.150038   8.226996   8.242696   9.040757   8.493314
    31  C    8.318825   9.331259   9.322493  10.203963   9.494928
    32  H    8.940519  10.114801  10.173648  10.948062  10.281963
    33  H    8.930482   9.760764   9.639589  10.653872   9.962109
    34  H    8.149551   9.116365   9.135569  10.035556   9.162142
                   26         27         28         29         30
    26  S    0.000000
    27  O    1.469600   0.000000
    28  O    1.469600   2.399847   0.000000
    29  O    1.469600   2.399847   2.399847   0.000000
    30  O    1.670000   2.566082   2.566082   2.566082   0.000000
    31  C    2.534929   2.969971   2.969971   3.798000   1.430000
    32  H    2.720214   3.292832   2.578659   4.055467   2.051796
    33  H    3.487783   3.950672   3.950672   4.605636   2.051796
    34  H    2.720214   2.578659   3.292832   4.055467   2.051796
                   31         32         33         34
    31  C    0.000000
    32  H    1.070000   0.000000
    33  H    1.070000   1.747303   0.000000
    34  H    1.070000   1.747303   1.747303   0.000000
 Stoichiometry    C9H18N2O4S
 Framework group  C1[X(C9H18N2O4S)]
 Deg. of freedom    96
 Full point group                 C1      NOp   1
 Largest Abelian subgroup         C1      NOp   1
 Largest concise Abelian subgroup C1      NOp   1
                         Standard orientation:                         
 ---------------------------------------------------------------------
 Center     Atomic      Atomic             Coordinates (Angstroms)
 Number     Number       Type             X           Y           Z
 ---------------------------------------------------------------------
      1          6           0       -0.372661    0.413954    1.405635
      2          6           0        0.617206    1.320407    1.316243
      3          6           0       -0.291715    1.124916   -0.609797
      4          7           0       -0.919319    0.313881    0.192054
      5          1           0       -0.665971   -0.124360    2.282611
      6          1           0        1.261188    1.640402    2.108575
      7          1           0       -0.509905    1.260752   -1.648471
      8          7           0        0.643133    1.744670    0.050954
      9          6           0        1.570029    2.742417   -0.502458
     10          1           0        1.845513    3.436854    0.263548
     11          1           0        2.446299    2.250218   -0.869597
     12          1           0        1.092954    3.266430   -1.304150
     13          6           0       -2.039881   -0.563296   -0.176458
     14          1           0       -1.946998   -0.848124   -1.203661
     15          1           0       -2.025152   -1.438410    0.439056
     16          6           0       -3.368685    0.187206    0.030004
     17          1           0       -3.461568    0.472034    1.057207
     18          1           0       -3.383414    1.062321   -0.585510
     19          6           0       -4.542607   -0.731741   -0.356057
     20          1           0       -4.449724   -1.016568   -1.383260
     21          1           0       -4.527878   -1.606855    0.259458
     22          6           0       -5.871411    0.018762   -0.149594
     23          1           0       -5.886140    0.893876   -0.765109
     24          1           0       -6.687058   -0.619727   -0.417831
     25          1           0       -5.964294    0.303590    0.877609
     26         16           0        1.842623   -1.220302   -0.042674
     27          8           0        1.468293   -0.699864    1.279727
     28          8           0        2.958517   -2.165761    0.100896
     29          8           0        0.691030   -1.909058   -0.641984
     30          8           0        2.308565    0.045353   -1.027516
     31          6           0        3.429127    0.715550   -0.444355
     32          1           0        4.241597    0.027172   -0.339823
     33          1           0        3.727664    1.526479   -1.075362
     34          1           0        3.156581    1.094476    0.518471
 ---------------------------------------------------------------------
 Rotational constants (GHZ):      0.9162696      0.2821351      0.2426739
 Standard basis: 6-311+G(d) (5D, 7F)
 There are   414 symmetry adapted basis functions of A   symmetry.
 Integral buffers will be    131072 words long.
 Raffenetti 2 integral format.
 Two-electron integral symmetry is turned on.
   414 basis functions,   680 primitive gaussians,   430 cartesian basis functions
    67 alpha electrons       67 beta electrons
       nuclear repulsion energy      1455.1214248138 Hartrees.
 NAtoms=   34 NActive=   34 NUniq=   34 SFac= 7.50D-01 NAtFMM=   80 NAOKFM=F Big=F
 One-electron integrals computed using PRISM.
 NBasis=   414 RedAO= T  NBF=   414
 NBsUse=   414 1.00D-06 NBFU=   414
 Harris functional with IExCor= 1009 diagonalized for initial guess.
 ExpMin= 4.05D-02 ExpMax= 9.34D+04 ExpMxC= 3.17D+03 IAcc=2 IRadAn=         0 AccDes= 0.00D+00
 HarFok:  IExCor= 1009 AccDes= 0.00D+00 IRadAn=         0 IDoV= 1
 ScaDFX=  1.000000  1.000000  1.000000  1.000000
 FoFCou: FMM=F IPFlag=           0 FMFlag=      100000 FMFlg1=           0
         NFxFlg=           0 DoJE=T BraDBF=F KetDBF=T FulRan=T
         Omega=  0.000000  0.000000  1.000000  0.000000  0.000000 ICntrl=     500 IOpCl=  0
         NMat0=    1 NMatS0=    1 NMatT0=    0 NMatD0=    1 NMtDS0=    0 NMtDT0=    0
         I1Cent=           4 NGrid=           0.
 Petite list used in FoFCou.
 Initial guess orbital symmetries:
       Occupied  (A) (A) (A) (A) (A) (A) (A) (A) (A) (A) (A) (A)
                 (A) (A) (A) (A) (A) (A) (A) (A) (A) (A) (A) (A)
                 (A) (A) (A) (A) (A) (A) (A) (A) (A) (A) (A) (A)
                 (A) (A) (A) (A) (A) (A) (A) (A) (A) (A) (A) (A)
                 (A) (A) (A) (A) (A) (A) (A) (A) (A) (A) (A) (A)
                 (A) (A) (A) (A) (A) (A) (A)
       Virtual   (A) (A) (A) (A) (A) (A) (A) (A) (A) (A) (A) (A)
                 (A) (A) (A) (A) (A) (A) (A) (A) (A) (A) (A) (A)
                 (A) (A) (A) (A) (A) (A) (A) (A) (A) (A) (A) (A)
                 (A) (A) (A) (A) (A) (A) (A) (A) (A) (A) (A) (A)
                 (A) (A) (A) (A) (A) (A) (A) (A) (A) (A) (A) (A)
                 (A) (A) (A) (A) (A) (A) (A) (A) (A) (A) (A) (A)
                 (A) (A) (A) (A) (A) (A) (A) (A) (A) (A) (A) (A)
                 (A) (A) (A) (A) (A) (A) (A) (A) (A) (A) (A) (A)
                 (A) (A) (A) (A) (A) (A) (A) (A) (A) (A) (A) (A)
                 (A) (A) (A) (A) (A) (A) (A) (A) (A) (A) (A) (A)
                 (A) (A) (A) (A) (A) (A) (A) (A) (A) (A) (A) (A)
                 (A) (A) (A) (A) (A) (A) (A) (A) (A) (A) (A) (A)
                 (A) (A) (A) (A) (A) (A) (A) (A) (A) (A) (A) (A)
                 (A) (A) (A) (A) (A) (A) (A) (A) (A) (A) (A) (A)
                 (A) (A) (A) (A) (A) (A) (A) (A) (A) (A) (A) (A)
                 (A) (A) (A) (A) (A) (A) (A) (A) (A) (A) (A) (A)
                 (A) (A) (A) (A) (A) (A) (A) (A) (A) (A) (A) (A)
                 (A) (A) (A) (A) (A) (A) (A) (A) (A) (A) (A) (A)
                 (A) (A) (A) (A) (A) (A) (A) (A) (A) (A) (A) (A)
                 (A) (A) (A) (A) (A) (A) (A) (A) (A) (A) (A) (A)
                 (A) (A) (A) (A) (A) (A) (A) (A) (A) (A) (A) (A)
                 (A) (A) (A) (A) (A) (A) (A) (A) (A) (A) (A) (A)
                 (A) (A) (A) (A) (A) (A) (A) (A) (A) (A) (A) (A)
                 (A) (A) (A) (A) (A) (A) (A) (A) (A) (A) (A) (A)
                 (A) (A) (A) (A) (A) (A) (A) (A) (A) (A) (A) (A)
                 (A) (A) (A) (A) (A) (A) (A) (A) (A) (A) (A) (A)
                 (A) (A) (A) (A) (A) (A) (A) (A) (A) (A) (A) (A)
                 (A) (A) (A) (A) (A) (A) (A) (A) (A) (A) (A) (A)
                 (A) (A) (A) (A) (A) (A) (A) (A) (A) (A) (A)
 The electronic state of the initial guess is 1-A.
 Requested convergence on RMS density matrix=1.00D-08 within 128 cycles.
 Requested convergence on MAX density matrix=1.00D-06.
 Requested convergence on             energy=1.00D-06.
 No special actions if energy rises.
 SCF Done:  E(RM062X) =  -1162.08715640     A.U. after   15 cycles
             Convg  =    0.4245D-08             -V/T =  2.0015

 **********************************************************************

            Population analysis using the SCF density.

 **********************************************************************

 Orbital symmetries:
       Occupied  (A) (A) (A) (A) (A) (A) (A) (A) (A) (A) (A) (A)
                 (A) (A) (A) (A) (A) (A) (A) (A) (A) (A) (A) (A)
                 (A) (A) (A) (A) (A) (A) (A) (A) (A) (A) (A) (A)
                 (A) (A) (A) (A) (A) (A) (A) (A) (A) (A) (A) (A)
                 (A) (A) (A) (A) (A) (A) (A) (A) (A) (A) (A) (A)
                 (A) (A) (A) (A) (A) (A) (A)
       Virtual   (A) (A) (A) (A) (A) (A) (A) (A) (A) (A) (A) (A)
                 (A) (A) (A) (A) (A) (A) (A) (A) (A) (A) (A) (A)
                 (A) (A) (A) (A) (A) (A) (A) (A) (A) (A) (A) (A)
                 (A) (A) (A) (A) (A) (A) (A) (A) (A) (A) (A) (A)
                 (A) (A) (A) (A) (A) (A) (A) (A) (A) (A) (A) (A)
                 (A) (A) (A) (A) (A) (A) (A) (A) (A) (A) (A) (A)
                 (A) (A) (A) (A) (A) (A) (A) (A) (A) (A) (A) (A)
                 (A) (A) (A) (A) (A) (A) (A) (A) (A) (A) (A) (A)
                 (A) (A) (A) (A) (A) (A) (A) (A) (A) (A) (A) (A)
                 (A) (A) (A) (A) (A) (A) (A) (A) (A) (A) (A) (A)
                 (A) (A) (A) (A) (A) (A) (A) (A) (A) (A) (A) (A)
                 (A) (A) (A) (A) (A) (A) (A) (A) (A) (A) (A) (A)
                 (A) (A) (A) (A) (A) (A) (A) (A) (A) (A) (A) (A)
                 (A) (A) (A) (A) (A) (A) (A) (A) (A) (A) (A) (A)
                 (A) (A) (A) (A) (A) (A) (A) (A) (A) (A) (A) (A)
                 (A) (A) (A) (A) (A) (A) (A) (A) (A) (A) (A) (A)
                 (A) (A) (A) (A) (A) (A) (A) (A) (A) (A) (A) (A)
                 (A) (A) (A) (A) (A) (A) (A) (A) (A) (A) (A) (A)
                 (A) (A) (A) (A) (A) (A) (A) (A) (A) (A) (A) (A)
                 (A) (A) (A) (A) (A) (A) (A) (A) (A) (A) (A) (A)
                 (A) (A) (A) (A) (A) (A) (A) (A) (A) (A) (A) (A)
                 (A) (A) (A) (A) (A) (A) (A) (A) (A) (A) (A) (A)
                 (A) (A) (A) (A) (A) (A) (A) (A) (A) (A) (A) (A)
                 (A) (A) (A) (A) (A) (A) (A) (A) (A) (A) (A) (A)
                 (A) (A) (A) (A) (A) (A) (A) (A) (A) (A) (A) (A)
                 (A) (A) (A) (A) (A) (A) (A) (A) (A) (A) (A) (A)
                 (A) (A) (A) (A) (A) (A) (A) (A) (A) (A) (A) (A)
                 (A) (A) (A) (A) (A) (A) (A) (A) (A) (A) (A) (A)
                 (A) (A) (A) (A) (A) (A) (A) (A) (A) (A) (A)
 The electronic state is 1-A.
 Alpha  occ. eigenvalues --  -90.08957 -19.65750 -19.56179 -19.55947 -19.54592
 Alpha  occ. eigenvalues --  -14.85717 -14.85084 -10.64100 -10.60716 -10.60375
 Alpha  occ. eigenvalues --  -10.59386 -10.59280 -10.58923 -10.55726 -10.54892
 Alpha  occ. eigenvalues --  -10.53346  -8.42551  -6.34890  -6.34725  -6.34682
 Alpha  occ. eigenvalues --   -1.24884  -1.22849  -1.14789  -1.09503  -1.07343
 Alpha  occ. eigenvalues --   -1.05442  -0.94292  -0.91215  -0.88781  -0.84740
 Alpha  occ. eigenvalues --   -0.81640  -0.77456  -0.74927  -0.72225  -0.70015
 Alpha  occ. eigenvalues --   -0.67127  -0.66697  -0.63047  -0.59376  -0.58771
 Alpha  occ. eigenvalues --   -0.57462  -0.56324  -0.56105  -0.55737  -0.55073
 Alpha  occ. eigenvalues --   -0.53686  -0.52414  -0.51660  -0.51269  -0.50534
 Alpha  occ. eigenvalues --   -0.50232  -0.48425  -0.46886  -0.46311  -0.45421
 Alpha  occ. eigenvalues --   -0.43322  -0.42451  -0.42363  -0.40173  -0.38672
 Alpha  occ. eigenvalues --   -0.38162  -0.37381  -0.36556  -0.34563  -0.32204
 Alpha  occ. eigenvalues --   -0.30223  -0.25949
 Alpha virt. eigenvalues --   -0.01584  -0.00070   0.00323   0.00848   0.01903
 Alpha virt. eigenvalues --    0.02101   0.02632   0.02846   0.03553   0.04556
 Alpha virt. eigenvalues --    0.04601   0.05139   0.05479   0.06007   0.06304
 Alpha virt. eigenvalues --    0.06720   0.07129   0.07387   0.08137   0.08357
 Alpha virt. eigenvalues --    0.09287   0.10030   0.10515   0.10861   0.11176
 Alpha virt. eigenvalues --    0.11695   0.12031   0.12883   0.12979   0.13258
 Alpha virt. eigenvalues --    0.13537   0.14227   0.15253   0.15347   0.15553
 Alpha virt. eigenvalues --    0.15751   0.16590   0.16810   0.16893   0.17551
 Alpha virt. eigenvalues --    0.18358   0.18554   0.19128   0.19735   0.20028
 Alpha virt. eigenvalues --    0.20371   0.20893   0.21429   0.21573   0.22180
 Alpha virt. eigenvalues --    0.22245   0.22938   0.23129   0.23624   0.23866
 Alpha virt. eigenvalues --    0.24109   0.24561   0.25238   0.25626   0.25891
 Alpha virt. eigenvalues --    0.26222   0.26817   0.27141   0.27765   0.28339
 Alpha virt. eigenvalues --    0.28612   0.29133   0.29430   0.30121   0.30420
 Alpha virt. eigenvalues --    0.30780   0.31125   0.31210   0.32165   0.32891
 Alpha virt. eigenvalues --    0.33219   0.33930   0.34683   0.35154   0.35334
 Alpha virt. eigenvalues --    0.35628   0.35783   0.37023   0.37920   0.38484
 Alpha virt. eigenvalues --    0.38872   0.39580   0.40364   0.40976   0.41693
 Alpha virt. eigenvalues --    0.42286   0.43136   0.43365   0.43992   0.44795
 Alpha virt. eigenvalues --    0.45572   0.46246   0.46512   0.48143   0.48624
 Alpha virt. eigenvalues --    0.49760   0.50092   0.51184   0.51652   0.52751
 Alpha virt. eigenvalues --    0.54158   0.54655   0.55000   0.56325   0.57173
 Alpha virt. eigenvalues --    0.57919   0.58976   0.59523   0.61331   0.61607
 Alpha virt. eigenvalues --    0.62295   0.63302   0.64099   0.65805   0.66331
 Alpha virt. eigenvalues --    0.68210   0.69304   0.69549   0.70110   0.70674
 Alpha virt. eigenvalues --    0.71349   0.71595   0.72057   0.72422   0.73016
 Alpha virt. eigenvalues --    0.73572   0.74009   0.75374   0.75445   0.75945
 Alpha virt. eigenvalues --    0.77505   0.77865   0.79407   0.79900   0.80015
 Alpha virt. eigenvalues --    0.81239   0.81588   0.82311   0.83106   0.84709
 Alpha virt. eigenvalues --    0.85765   0.86887   0.87788   0.90190   0.94847
 Alpha virt. eigenvalues --    0.96775   0.98346   1.00236   1.00710   1.02326
 Alpha virt. eigenvalues --    1.02768   1.04280   1.04829   1.06422   1.07143
 Alpha virt. eigenvalues --    1.09465   1.10770   1.14797   1.14875   1.15504
 Alpha virt. eigenvalues --    1.15740   1.16133   1.18810   1.19687   1.23247
 Alpha virt. eigenvalues --    1.23660   1.24993   1.26343   1.27460   1.27596
 Alpha virt. eigenvalues --    1.28671   1.30481   1.31597   1.31975   1.32426
 Alpha virt. eigenvalues --    1.33089   1.35754   1.36220   1.37541   1.39614
 Alpha virt. eigenvalues --    1.41090   1.42086   1.44628   1.46844   1.47651
 Alpha virt. eigenvalues --    1.49258   1.53562   1.54268   1.55408   1.56627
 Alpha virt. eigenvalues --    1.57417   1.59485   1.61422   1.62213   1.62413
 Alpha virt. eigenvalues --    1.64024   1.65673   1.67406   1.68274   1.68642
 Alpha virt. eigenvalues --    1.70500   1.72226   1.72983   1.74804   1.74887
 Alpha virt. eigenvalues --    1.75956   1.78739   1.80061   1.81156   1.82057
 Alpha virt. eigenvalues --    1.84201   1.85337   1.86443   1.89607   1.91829
 Alpha virt. eigenvalues --    1.92781   1.94753   1.95468   1.97823   1.99335
 Alpha virt. eigenvalues --    2.00378   2.01606   2.04626   2.06848   2.12651
 Alpha virt. eigenvalues --    2.13770   2.18579   2.23961   2.31902   2.34929
 Alpha virt. eigenvalues --    2.38671   2.45510   2.48033   2.49483   2.51508
 Alpha virt. eigenvalues --    2.51832   2.53279   2.54179   2.56310   2.56740
 Alpha virt. eigenvalues --    2.57072   2.57510   2.58739   2.61218   2.62497
 Alpha virt. eigenvalues --    2.62819   2.64619   2.67282   2.68622   2.71385
 Alpha virt. eigenvalues --    2.73239   2.78094   2.79263   2.86699   2.88385
 Alpha virt. eigenvalues --    2.89770   2.90411   2.92892   2.96335   2.97638
 Alpha virt. eigenvalues --    2.98910   2.99472   2.99782   3.01999   3.02473
 Alpha virt. eigenvalues --    3.04253   3.04694   3.05900   3.07726   3.10564
 Alpha virt. eigenvalues --    3.12034   3.12897   3.15315   3.16239   3.18666
 Alpha virt. eigenvalues --    3.20465   3.21327   3.24743   3.25570   3.26982
 Alpha virt. eigenvalues --    3.27897   3.28753   3.31187   3.31867   3.33895
 Alpha virt. eigenvalues --    3.34511   3.37858   3.39831   3.42808   3.44721
 Alpha virt. eigenvalues --    3.51234   3.56875   3.58536   3.62061   3.67378
 Alpha virt. eigenvalues --    3.68627   3.72304   3.74007   3.75416   3.78511
 Alpha virt. eigenvalues --    3.95392   3.99618   4.02096   4.05641   4.10238
 Alpha virt. eigenvalues --    4.12059   4.75237   4.87719   4.93792   5.17953
 Alpha virt. eigenvalues --    5.21327   5.23633   5.25304   5.25948   5.26545
 Alpha virt. eigenvalues --    5.31981   5.35324   5.36966   5.39076   5.48118
 Alpha virt. eigenvalues --    5.52919   5.55175   8.42780  17.60640  17.66501
 Alpha virt. eigenvalues --   17.74853  23.57543  23.62082  23.68962  23.70463
 Alpha virt. eigenvalues --   23.74637  23.78973  23.86674  24.03185  24.26067
 Alpha virt. eigenvalues --   35.57200  35.73838  50.04065  50.06576  50.09248
 Alpha virt. eigenvalues --   50.13901 189.67332
          Condensed to atoms (all electrons):
              1          2          3          4          5          6
     1  C   11.479488  -4.364454   0.098587   0.159951   0.344508   0.116342
     2  C   -4.364454  11.213842  -0.725415   0.263029   0.050911   0.257034
     3  C    0.098587  -0.725415   6.718213   0.134776  -0.000309   0.015646
     4  N    0.159951   0.263029   0.134776   7.854810  -0.107942   0.025396
     5  H    0.344508   0.050911  -0.000309  -0.107942   0.385582  -0.002178
     6  H    0.116342   0.257034   0.015646   0.025396  -0.002178   0.392611
     7  H    0.015370   0.011682   0.379936  -0.045006  -0.000239   0.000002
     8  N    0.100958  -0.351928   0.556234  -1.325404   0.053050  -0.063786
     9  C   -0.029742  -0.130112  -0.134249  -0.158864   0.001900  -0.013966
    10  H   -0.013240   0.039022  -0.014390  -0.018406   0.000061  -0.001388
    11  H    0.029304  -0.019652  -0.013536   0.015434   0.000066   0.000891
    12  H   -0.006930   0.003666   0.028495  -0.009198   0.000018  -0.000194
    13  C   -1.305707   0.695252  -0.698853  -0.060638  -0.005233   0.002874
    14  H   -0.028360  -0.003833   0.037441  -0.059546  -0.000085   0.000026
    15  H    0.034045   0.010154  -0.027635  -0.062100   0.000027  -0.000062
    16  C    0.452765  -0.402539   0.171173  -0.146757   0.006724  -0.000498
    17  H    0.001791  -0.006958   0.019376   0.000986  -0.000917   0.000001
    18  H    0.025768  -0.004482   0.007915   0.001500   0.000034  -0.000011
    19  C   -0.199350   0.108439  -0.127367  -0.010987   0.005425  -0.000084
    20  H    0.001173  -0.001099   0.007515  -0.000556  -0.000018   0.000000
    21  H    0.003875  -0.000714  -0.002329   0.000863   0.000040   0.000000
    22  C   -0.034539  -0.005207  -0.038733  -0.049598   0.000415   0.000010
    23  H    0.000342   0.000111  -0.001135   0.000312   0.000001   0.000000
    24  H    0.000161  -0.000030   0.000199   0.000516   0.000000   0.000000
    25  H   -0.000066   0.000156   0.001394   0.000022  -0.000001   0.000000
    26  S   -0.384721   0.369427  -0.180311  -0.010337   0.007970  -0.002097
    27  O   -0.282992  -0.529524   0.239021   0.047061  -0.025008  -0.018382
    28  O   -0.003205  -0.086913   0.029411  -0.030062   0.001671   0.000722
    29  O   -0.361316   0.432723  -0.193212   0.021635   0.001455  -0.001529
    30  O    0.397358  -0.282961  -0.002567   0.108955  -0.003278   0.003498
    31  C   -0.024738  -0.075575   0.054530  -0.014518   0.001606   0.000643
    32  H    0.015785  -0.017306  -0.007253   0.000444  -0.000009   0.000294
    33  H   -0.000606   0.025230  -0.011287  -0.001930  -0.000009  -0.000013
    34  H   -0.031731   0.043940   0.022158  -0.002323   0.000007  -0.003770
              7          8          9         10         11         12
     1  C    0.015370   0.100958  -0.029742  -0.013240   0.029304  -0.006930
     2  C    0.011682  -0.351928  -0.130112   0.039022  -0.019652   0.003666
     3  C    0.379936   0.556234  -0.134249  -0.014390  -0.013536   0.028495
     4  N   -0.045006  -1.325404  -0.158864  -0.018406   0.015434  -0.009198
     5  H   -0.000239   0.053050   0.001900   0.000061   0.000066   0.000018
     6  H    0.000002  -0.063786  -0.013966  -0.001388   0.000891  -0.000194
     7  H    0.383201  -0.038891   0.009499   0.000034   0.001579  -0.000478
     8  N   -0.038891   8.204943   0.010560  -0.086714  -0.029237  -0.085211
     9  C    0.009499   0.010560   6.205865   0.440332   0.261612   0.426754
    10  H    0.000034  -0.086714   0.440332   0.411851  -0.021395  -0.014931
    11  H    0.001579  -0.029237   0.261612  -0.021395   0.469803  -0.027033
    12  H   -0.000478  -0.085211   0.426754  -0.014931  -0.027033   0.419892
    13  C   -0.006030  -0.261828  -0.037105   0.001417   0.003839   0.008506
    14  H    0.002364   0.003052   0.000732   0.000004   0.000001  -0.000009
    15  H   -0.000038  -0.014197  -0.000489  -0.000003  -0.000002  -0.000005
    16  C    0.006311   0.105411  -0.024165  -0.000093   0.000853  -0.001338
    17  H    0.000004  -0.000934  -0.000317   0.000000   0.000001   0.000001
    18  H   -0.000895  -0.003007   0.000431  -0.000004   0.000004  -0.000006
    19  C    0.002040   0.023553   0.004194   0.000047   0.000061   0.000029
    20  H    0.000017  -0.000025  -0.000016   0.000000   0.000000   0.000000
    21  H   -0.000013   0.000233   0.000008   0.000000   0.000000   0.000000
    22  C    0.000115  -0.000621  -0.001013   0.000000   0.000007   0.000011
    23  H    0.000004   0.000107   0.000014   0.000000   0.000000   0.000000
    24  H   -0.000001  -0.000010  -0.000002   0.000000   0.000000   0.000000
    25  H    0.000000  -0.000018   0.000009   0.000000   0.000000   0.000000
    26  S   -0.002602  -0.047004   0.074692   0.004972   0.007362  -0.001667
    27  O   -0.000587   0.147229  -0.020168  -0.000758  -0.001666  -0.001266
    28  O   -0.000521   0.053073  -0.010021   0.000043  -0.000479   0.000053
    29  O    0.005157  -0.057951   0.018980   0.000207   0.001281   0.000223
    30  O    0.005485  -0.358896   0.075609   0.000233  -0.007741  -0.007172
    31  C   -0.004113   0.179926  -0.208163  -0.009134   0.034325  -0.002147
    32  H    0.000045  -0.004494   0.012893  -0.000113   0.001757  -0.000082
    33  H    0.000155  -0.002210  -0.043034   0.001343   0.025374   0.001836
    34  H   -0.000286   0.028819   0.007002  -0.004741  -0.020719   0.001314
             13         14         15         16         17         18
     1  C   -1.305707  -0.028360   0.034045   0.452765   0.001791   0.025768
     2  C    0.695252  -0.003833   0.010154  -0.402539  -0.006958  -0.004482
     3  C   -0.698853   0.037441  -0.027635   0.171173   0.019376   0.007915
     4  N   -0.060638  -0.059546  -0.062100  -0.146757   0.000986   0.001500
     5  H   -0.005233  -0.000085   0.000027   0.006724  -0.000917   0.000034
     6  H    0.002874   0.000026  -0.000062  -0.000498   0.000001  -0.000011
     7  H   -0.006030   0.002364  -0.000038   0.006311   0.000004  -0.000895
     8  N   -0.261828   0.003052  -0.014197   0.105411  -0.000934  -0.003007
     9  C   -0.037105   0.000732  -0.000489  -0.024165  -0.000317   0.000431
    10  H    0.001417   0.000004  -0.000003  -0.000093   0.000000  -0.000004
    11  H    0.003839   0.000001  -0.000002   0.000853   0.000001   0.000004
    12  H    0.008506  -0.000009  -0.000005  -0.001338   0.000001  -0.000006
    13  C    8.547345   0.405329   0.446045  -1.362572  -0.033892  -0.015944
    14  H    0.405329   0.359084  -0.018247  -0.012255   0.002903  -0.004587
    15  H    0.446045  -0.018247   0.358085  -0.029184  -0.004488   0.003416
    16  C   -1.362572  -0.012255  -0.029184   7.847902   0.434788   0.403713
    17  H   -0.033892   0.002903  -0.004488   0.434788   0.419087  -0.030038
    18  H   -0.015944  -0.004587   0.003416   0.403713  -0.030038   0.435676
    19  C    0.405450  -0.008269  -0.021293  -0.876163  -0.062631  -0.066316
    20  H   -0.002071   0.001648   0.000133  -0.019989   0.005257  -0.005380
    21  H    0.000368  -0.000197   0.001134  -0.050893  -0.005636   0.005241
    22  C   -0.205273   0.004990   0.003877   0.160832  -0.009743  -0.011061
    23  H   -0.002795   0.000063  -0.000038  -0.045092  -0.000310   0.003267
    24  H    0.012503  -0.000039  -0.000036   0.067461  -0.000182  -0.000228
    25  H    0.000101  -0.000006   0.000109  -0.032381   0.003613  -0.000140
    26  S    0.149319   0.003642   0.000691  -0.075003   0.000764   0.000776
    27  O   -0.089677  -0.002680  -0.001296   0.047754  -0.000377  -0.000252
    28  O    0.056201   0.000478  -0.000148  -0.001210   0.000005   0.000001
    29  O    0.100807  -0.000672   0.000558  -0.029372   0.000146   0.000194
    30  O   -0.057864  -0.000674  -0.000124   0.021091  -0.000038   0.000009
    31  C    0.009615   0.000263  -0.000118  -0.001495  -0.000030   0.000025
    32  H   -0.000593   0.000001   0.000000   0.000051   0.000000   0.000000
    33  H    0.002350  -0.000005  -0.000001   0.000045   0.000000   0.000000
    34  H   -0.005663   0.000011   0.000010  -0.000674   0.000001   0.000000
             19         20         21         22         23         24
     1  C   -0.199350   0.001173   0.003875  -0.034539   0.000342   0.000161
     2  C    0.108439  -0.001099  -0.000714  -0.005207   0.000111  -0.000030
     3  C   -0.127367   0.007515  -0.002329  -0.038733  -0.001135   0.000199
     4  N   -0.010987  -0.000556   0.000863  -0.049598   0.000312   0.000516
     5  H    0.005425  -0.000018   0.000040   0.000415   0.000001   0.000000
     6  H   -0.000084   0.000000   0.000000   0.000010   0.000000   0.000000
     7  H    0.002040   0.000017  -0.000013   0.000115   0.000004  -0.000001
     8  N    0.023553  -0.000025   0.000233  -0.000621   0.000107  -0.000010
     9  C    0.004194  -0.000016   0.000008  -0.001013   0.000014  -0.000002
    10  H    0.000047   0.000000   0.000000   0.000000   0.000000   0.000000
    11  H    0.000061   0.000000   0.000000   0.000007   0.000000   0.000000
    12  H    0.000029   0.000000   0.000000   0.000011   0.000000   0.000000
    13  C    0.405450  -0.002071   0.000368  -0.205273  -0.002795   0.012503
    14  H   -0.008269   0.001648  -0.000197   0.004990   0.000063  -0.000039
    15  H   -0.021293   0.000133   0.001134   0.003877  -0.000038  -0.000036
    16  C   -0.876163  -0.019989  -0.050893   0.160832  -0.045092   0.067461
    17  H   -0.062631   0.005257  -0.005636  -0.009743  -0.000310  -0.000182
    18  H   -0.066316  -0.005380   0.005241  -0.011061   0.003267  -0.000228
    19  C    6.566172   0.397594   0.429679  -0.177807   0.021857  -0.084423
    20  H    0.397594   0.449921  -0.034208  -0.060181  -0.008288  -0.003773
    21  H    0.429679  -0.034208   0.444571  -0.055583   0.006536  -0.003688
    22  C   -0.177807  -0.060181  -0.055583   6.401172   0.368980   0.359477
    23  H    0.021857  -0.008288   0.006536   0.368980   0.457064  -0.024091
    24  H   -0.084423  -0.003773  -0.003688   0.359477  -0.024091   0.427103
    25  H    0.009165   0.006603  -0.007905   0.364331  -0.035003  -0.023978
    26  S    0.010894  -0.000045  -0.000058  -0.000210  -0.000008   0.000002
    27  O    0.000905  -0.000013   0.000022   0.000218   0.000000   0.000000
    28  O    0.001974  -0.000001   0.000000   0.000010   0.000000   0.000000
    29  O   -0.004254   0.000059  -0.000049  -0.000611  -0.000001   0.000000
    30  O   -0.002346   0.000001  -0.000001   0.000029   0.000000   0.000000
    31  C    0.000618   0.000004  -0.000003   0.000196   0.000000   0.000000
    32  H   -0.000001   0.000000   0.000000   0.000000   0.000000   0.000000
    33  H    0.000011   0.000000   0.000000   0.000000   0.000000   0.000000
    34  H   -0.000071   0.000000   0.000000  -0.000003   0.000000   0.000000
             25         26         27         28         29         30
     1  C   -0.000066  -0.384721  -0.282992  -0.003205  -0.361316   0.397358
     2  C    0.000156   0.369427  -0.529524  -0.086913   0.432723  -0.282961
     3  C    0.001394  -0.180311   0.239021   0.029411  -0.193212  -0.002567
     4  N    0.000022  -0.010337   0.047061  -0.030062   0.021635   0.108955
     5  H   -0.000001   0.007970  -0.025008   0.001671   0.001455  -0.003278
     6  H    0.000000  -0.002097  -0.018382   0.000722  -0.001529   0.003498
     7  H    0.000000  -0.002602  -0.000587  -0.000521   0.005157   0.005485
     8  N   -0.000018  -0.047004   0.147229   0.053073  -0.057951  -0.358896
     9  C    0.000009   0.074692  -0.020168  -0.010021   0.018980   0.075609
    10  H    0.000000   0.004972  -0.000758   0.000043   0.000207   0.000233
    11  H    0.000000   0.007362  -0.001666  -0.000479   0.001281  -0.007741
    12  H    0.000000  -0.001667  -0.001266   0.000053   0.000223  -0.007172
    13  C    0.000101   0.149319  -0.089677   0.056201   0.100807  -0.057864
    14  H   -0.000006   0.003642  -0.002680   0.000478  -0.000672  -0.000674
    15  H    0.000109   0.000691  -0.001296  -0.000148   0.000558  -0.000124
    16  C   -0.032381  -0.075003   0.047754  -0.001210  -0.029372   0.021091
    17  H    0.003613   0.000764  -0.000377   0.000005   0.000146  -0.000038
    18  H   -0.000140   0.000776  -0.000252   0.000001   0.000194   0.000009
    19  C    0.009165   0.010894   0.000905   0.001974  -0.004254  -0.002346
    20  H    0.006603  -0.000045  -0.000013  -0.000001   0.000059   0.000001
    21  H   -0.007905  -0.000058   0.000022   0.000000  -0.000049  -0.000001
    22  C    0.364331  -0.000210   0.000218   0.000010  -0.000611   0.000029
    23  H   -0.035003  -0.000008   0.000000   0.000000  -0.000001   0.000000
    24  H   -0.023978   0.000002   0.000000   0.000000   0.000000   0.000000
    25  H    0.453024   0.000000   0.000000   0.000000   0.000002   0.000000
    26  S    0.000000  16.676138  -0.301553  -0.179889   0.174938  -0.311609
    27  O    0.000000  -0.301553   9.377435  -0.114011  -0.333144   0.046897
    28  O    0.000000  -0.179889  -0.114011   9.104243  -0.479161  -0.187022
    29  O    0.000002   0.174938  -0.333144  -0.479161   9.088499   0.019233
    30  O    0.000000  -0.311609   0.046897  -0.187022   0.019233   9.002602
    31  C    0.000000  -0.376890   0.139079   0.104303  -0.069250  -0.303930
    32  H    0.000000  -0.015629   0.001434   0.012105  -0.002727  -0.016774
    33  H    0.000000   0.026353  -0.004306  -0.004841   0.003081  -0.069537
    34  H    0.000000  -0.025440  -0.012235  -0.001379   0.002614  -0.083033
             31         32         33         34
     1  C   -0.024738   0.015785  -0.000606  -0.031731
     2  C   -0.075575  -0.017306   0.025230   0.043940
     3  C    0.054530  -0.007253  -0.011287   0.022158
     4  N   -0.014518   0.000444  -0.001930  -0.002323
     5  H    0.001606  -0.000009  -0.000009   0.000007
     6  H    0.000643   0.000294  -0.000013  -0.003770
     7  H   -0.004113   0.000045   0.000155  -0.000286
     8  N    0.179926  -0.004494  -0.002210   0.028819
     9  C   -0.208163   0.012893  -0.043034   0.007002
    10  H   -0.009134  -0.000113   0.001343  -0.004741
    11  H    0.034325   0.001757   0.025374  -0.020719
    12  H   -0.002147  -0.000082   0.001836   0.001314
    13  C    0.009615  -0.000593   0.002350  -0.005663
    14  H    0.000263   0.000001  -0.000005   0.000011
    15  H   -0.000118   0.000000  -0.000001   0.000010
    16  C   -0.001495   0.000051   0.000045  -0.000674
    17  H   -0.000030   0.000000   0.000000   0.000001
    18  H    0.000025   0.000000   0.000000   0.000000
    19  C    0.000618  -0.000001   0.000011  -0.000071
    20  H    0.000004   0.000000   0.000000   0.000000
    21  H   -0.000003   0.000000   0.000000   0.000000
    22  C    0.000196   0.000000   0.000000  -0.000003
    23  H    0.000000   0.000000   0.000000   0.000000
    24  H    0.000000   0.000000   0.000000   0.000000
    25  H    0.000000   0.000000   0.000000   0.000000
    26  S   -0.376890  -0.015629   0.026353  -0.025440
    27  O    0.139079   0.001434  -0.004306  -0.012235
    28  O    0.104303   0.012105  -0.004841  -0.001379
    29  O   -0.069250  -0.002727   0.003081   0.002614
    30  O   -0.303930  -0.016774  -0.069537  -0.083033
    31  C    6.291901   0.375699   0.371282   0.389017
    32  H    0.375699   0.362530  -0.015180  -0.025183
    33  H    0.371282  -0.015180   0.449342  -0.031170
    34  H    0.389017  -0.025183  -0.031170   0.448336
 Mulliken atomic charges:
              1
     1  C   -0.205874
     2  C   -0.515915
     3  C   -0.343439
     4  N    0.478483
     5  H    0.283758
     6  H    0.291971
     7  H    0.276703
     8  N    0.265221
     9  C   -0.739658
    10  H    0.285748
    11  H    0.287905
    12  H    0.266871
    13  C   -0.695582
    14  H    0.317430
    15  H    0.321219
    16  C   -0.615201
    17  H    0.267768
    18  H    0.254382
    19  C   -0.346746
    20  H    0.265737
    21  H    0.268706
    22  C   -1.014486
    23  H    0.258102
    24  H    0.273059
    25  H    0.260970
    26  S    0.407131
    27  O   -0.307161
    28  O   -0.265427
    29  O   -0.338541
    30  O    0.014569
    31  C   -0.862927
    32  H    0.322306
    33  H    0.277729
    34  H    0.305190
 Sum of Mulliken atomic charges =   0.00000
 Mulliken charges with hydrogens summed into heavy atoms:
              1
     1  C    0.077884
     2  C   -0.223945
     3  C   -0.066736
     4  N    0.478483
     8  N    0.265221
     9  C    0.100867
    13  C   -0.056933
    16  C   -0.093051
    19  C    0.187697
    22  C   -0.222356
    26  S    0.407131
    27  O   -0.307161
    28  O   -0.265427
    29  O   -0.338541
    30  O    0.014569
    31  C    0.042298
 Sum of Mulliken charges with hydrogens summed into heavy atoms =   0.00000
 Electronic spatial extent (au):  <R**2>=           4735.1063
 Charge=              0.0000 electrons
 Dipole moment (field-independent basis, Debye):
    X=             -5.6644    Y=             10.1806    Z=             -0.3285  Tot=             11.6549
 Quadrupole moment (field-independent basis, Debye-Ang):
   XX=           -100.3845   YY=           -110.2466   ZZ=           -102.2235
   XY=             25.4088   XZ=             -0.9959   YZ=             -3.7894
 Traceless Quadrupole moment (field-independent basis, Debye-Ang):
   XX=              3.9004   YY=             -5.9617   ZZ=              2.0613
   XY=             25.4088   XZ=             -0.9959   YZ=             -3.7894
 Octapole moment (field-independent basis, Debye-Ang**2):
  XXX=             -3.2780  YYY=             46.2635  ZZZ=              3.1225  XYY=             -5.1371
  XXY=             43.3468  XXZ=            -11.9313  XZZ=             -2.3674  YZZ=              8.1471
  YYZ=             -3.5610  XYZ=              4.9431
 Hexadecapole moment (field-independent basis, Debye-Ang**3):
 XXXX=          -4597.3847 YYYY=          -1193.6038 ZZZZ=           -428.8317 XXXY=            209.6688
 XXXZ=            -22.4649 YYYX=            113.0751 YYYZ=            -33.5983 ZZZX=             -0.2906
 ZZZY=             -5.0110 XXYY=          -1026.7607 XXZZ=           -853.0146 YYZZ=           -264.7686
 XXYZ=             -0.5700 YYXZ=             -1.9893 ZZXY=             16.4012
 N-N= 1.455121424814D+03 E-N=-5.642614913622D+03  KE= 1.160290167320D+03
 Calling FoFJK, ICntrl=      2127 FMM=F ISym2X=0 I1Cent= 0 IOpClX= 0 NMat=1 NMatS=1 NMatT=0.
 ***** Axes restored to original set *****
 -------------------------------------------------------------------
 Center     Atomic                   Forces (Hartrees/Bohr)
 Number     Number              X              Y              Z
 -------------------------------------------------------------------
      1        6          -0.014979147   -0.041524051    0.014495503
      2        6           0.004081583   -0.044904095    0.022590292
      3        6          -0.012230098    0.044969058    0.023659417
      4        7          -0.042024560   -0.002212248   -0.016130514
      5        1          -0.006939934    0.002646358   -0.004417901
      6        1           0.007643907    0.002342321    0.001518203
      7        1          -0.000473361    0.005257070    0.000733281
      8        7           0.042665087   -0.006557592    0.031206396
      9        6          -0.016919864    0.000046334   -0.000686585
     10        1           0.004874602   -0.012178824    0.002937319
     11        1          -0.006644328   -0.001550077    0.017516584
     12        1          -0.005866890    0.004284865    0.011839571
     13        6          -0.001175605   -0.016886785    0.027053145
     14        1           0.003963152    0.013929787   -0.003886979
     15        1           0.003076656   -0.001342123   -0.014634189
     16        6          -0.011045735    0.019695532   -0.026664904
     17        1           0.002947349   -0.016274369    0.001686341
     18        1           0.005358591    0.002930177    0.015915991
     19        6           0.010631649   -0.020034680    0.026136520
     20        1          -0.002438921    0.016055373   -0.002456561
     21        1          -0.004685537   -0.002119129   -0.015653490
     22        6           0.011576560    0.013211008   -0.020515020
     23        1           0.001771481    0.003067144    0.015153219
     24        1          -0.015186370    0.001231349    0.000951266
     25        1          -0.000564126   -0.015259422    0.001686454
     26       16          -0.037130489    0.004682280   -0.097830092
     27        8           0.033001871    0.016305821   -0.023315203
     28        8           0.019515333    0.011034386    0.025063865
     29        8           0.008626996    0.010990012    0.034754357
     30        8           0.002532934   -0.004702326   -0.007916885
     31        6          -0.002930341    0.012006021   -0.025155196
     32        1           0.006453432    0.002961772   -0.013321011
     33        1           0.008797465    0.013440554   -0.000955962
     34        1           0.003716658   -0.015541499   -0.001357229
 -------------------------------------------------------------------
 Cartesian Forces:  Max     0.097830092 RMS     0.019031878

 GradGradGradGradGradGradGradGradGradGradGradGradGradGradGradGradGradGrad
 Berny optimization.
 Internal  Forces:  Max     0.517437141 RMS     0.056541349
 Search for a local minimum.
 Step number   1 out of a maximum of  180
 All quantities printed in internal units (Hartrees-Bohrs-Radians)
 Mixed Optimization -- RFO/linear search
 Second derivative matrix not updated -- first step.
     Eigenvalues ---    0.00230   0.00237   0.00237   0.00237   0.00499
     Eigenvalues ---    0.00766   0.00766   0.01295   0.01559   0.01693
     Eigenvalues ---    0.01772   0.01939   0.02636   0.02690   0.02721
     Eigenvalues ---    0.02868   0.02991   0.03840   0.03840   0.04502
     Eigenvalues ---    0.04896   0.04896   0.05370   0.05496   0.05720
     Eigenvalues ---    0.05720   0.06336   0.07062   0.07655   0.07655
     Eigenvalues ---    0.08128   0.08860   0.10112   0.11090   0.11701
     Eigenvalues ---    0.11701   0.11999   0.12453   0.13823   0.13990
     Eigenvalues ---    0.14056   0.16000   0.16000   0.16000   0.16000
     Eigenvalues ---    0.16000   0.16000   0.16000   0.16000   0.16036
     Eigenvalues ---    0.16036   0.21948   0.21948   0.21985   0.22843
     Eigenvalues ---    0.23552   0.25000   0.25000   0.25000   0.25000
     Eigenvalues ---    0.25000   0.25000   0.25000   0.28519   0.28519
     Eigenvalues ---    0.28519   0.35740   0.35740   0.37230   0.37230
     Eigenvalues ---    0.37230   0.37230   0.37230   0.37230   0.37230
     Eigenvalues ---    0.37230   0.37230   0.37230   0.37230   0.37230
     Eigenvalues ---    0.37230   0.37230   0.37230   0.37230   0.37230
     Eigenvalues ---    0.37230   0.39757   0.40989   0.50178   0.50791
     Eigenvalues ---    0.58084   0.63056   0.65217   0.87694   0.87694
     Eigenvalues ---    0.876941000.000001000.000001000.000001000.00000
     Eigenvalues --- 1000.000001000.000001000.000001000.000001000.00000
     Eigenvalues --- 1000.000001000.000001000.000001000.000001000.00000
     Eigenvalues --- 1000.000001000.000001000.000001000.000001000.00000
     Eigenvalues --- 1000.000001000.000001000.000001000.000001000.00000
     Eigenvalues --- 1000.000001000.000001000.000001000.000001000.00000
     Eigenvalues --- 1000.000001000.000001000.000001000.000001000.00000
     Eigenvalues --- 1000.000001000.000001000.000001000.000001000.00000
     Eigenvalues --- 1000.000001000.000001000.000001000.000001000.00000
     Eigenvalues --- 1000.000001000.000001000.000001000.000001000.00000
     Eigenvalues --- 1000.000001000.000001000.000001000.000001000.00000
     Eigenvalues --- 1000.000001000.000001000.000001000.000001000.00000
     Eigenvalues --- 1000.000001000.000001000.000001000.000001000.00000
     Eigenvalues --- 1000.000001000.000001000.000001000.000001000.00000
     Eigenvalues --- 1000.000001000.000001000.000001000.000001000.00000
 RFO step:  Lambda=-6.49318824D-01 EMin= 2.30000000D-03
 Linear search not attempted -- first point.
 Maximum step size (   0.300) exceeded in Quadratic search.
    -- Step size scaled by   0.338
 Iteration  1 RMS(Cart)=  0.20947616 RMS(Int)=  0.01286467
 Iteration  2 RMS(Cart)=  0.20852415 RMS(Int)=  0.00580375
 Iteration  3 RMS(Cart)=  0.01411554 RMS(Int)=  0.00020105
 Iteration  4 RMS(Cart)=  0.00010842 RMS(Int)=  0.00019929
 Iteration  5 RMS(Cart)=  0.00000002 RMS(Int)=  0.00019929
 Variable       Old X    -DE/DX   Delta X   Delta X   Delta X     New X
                                 (Linear)    (Quad)   (Total)
    R1        2.54200   0.03072   0.00000   0.00834   0.00833   2.55034
    R2        2.52236   0.02733   0.00000   0.00740   0.00739   2.52976
    R3        2.02201   0.00353   0.00000   0.00117   0.00117   2.02318
    R4        2.02201   0.00374   0.00000   0.00124   0.00124   2.02325
    R5        2.52236   0.02702   0.00000   0.00737   0.00737   2.52974
    R6        2.46001   0.03690   0.00000   0.00966   0.00966   2.46967
    R7        2.02201   0.00489   0.00000   0.00162   0.00162   2.02363
    R8        2.46001   0.04166   0.00000   0.01092   0.01092   2.47093
    R9        2.77790  -0.00528   0.00000  -0.00178  -0.00178   2.77612
   R10        2.77790  -0.01123   0.00000  -0.00378  -0.00378   2.77412
   R11        2.02201   0.01310   0.00000   0.00434   0.00434   2.02635
   R12        2.02201   0.10357   0.00000   0.03431   0.03431   2.05632
   R13        2.02201   0.01352   0.00000   0.00448   0.00448   2.02648
   R14        3.53636   0.12061   0.00000   0.05806   0.05806   3.59442
   R15        2.02201   0.01323   0.00000   0.00438   0.00438   2.02639
   R16        2.02201   0.01289   0.00000   0.00427   0.00427   2.02628
   R17        2.91018  -0.00273   0.00000  -0.00099  -0.00099   2.90919
   R18        2.02201   0.01640   0.00000   0.00543   0.00543   2.02744
   R19        2.02201   0.01684   0.00000   0.00558   0.00558   2.02758
   R20        2.91018  -0.00288   0.00000  -0.00104  -0.00104   2.90914
   R21        2.02201   0.01609   0.00000   0.00533   0.00533   2.02734
   R22        2.02201   0.01616   0.00000   0.00535   0.00535   2.02736
   R23        2.91018  -0.00146   0.00000  -0.00053  -0.00053   2.90965
   R24        2.02201   0.01522   0.00000   0.00504   0.00504   2.02705
   R25        2.02201   0.01465   0.00000   0.00485   0.00485   2.02686
   R26        2.02201   0.01501   0.00000   0.00497   0.00497   2.02698
   R27        2.77714  -0.01930   0.00000  -0.00428  -0.00428   2.77286
   R28        2.77714  -0.01054   0.00000  -0.00234  -0.00234   2.77480
   R29        2.77714  -0.00414   0.00000  -0.00092  -0.00092   2.77622
   R30        3.15584   0.01644   0.00000   0.00531   0.00531   3.16116
   R31        2.70231  -0.01155   0.00000  -0.00369  -0.00369   2.69862
   R32        2.02201   0.01509   0.00000   0.00500   0.00500   2.02700
   R33        2.02201   0.00928   0.00000   0.00308   0.00308   2.02508
   R34        2.02201   0.01524   0.00000   0.00505   0.00505   2.02705
    A1        1.86657   0.00333   0.00000   0.00086   0.00086   1.86742
    A2        2.20831   0.00570   0.00000   0.00265   0.00265   2.21096
    A3        2.20831  -0.00902   0.00000  -0.00351  -0.00351   2.20480
    A4        2.20831   0.00697   0.00000   0.00310   0.00309   2.21140
    A5        1.86657   0.00001   0.00000  -0.00037  -0.00036   1.86620
    A6        2.20831  -0.00698   0.00000  -0.00274  -0.00274   2.20557
    A7        2.18795   0.00329   0.00000   0.00102   0.00102   2.18897
    A8        1.90729  -0.00664   0.00000  -0.00207  -0.00207   1.90522
    A9        2.18795   0.00335   0.00000   0.00105   0.00104   2.18899
   A10        1.89218   0.00122   0.00000   0.00058   0.00057   1.89275
   A11        2.19550   0.00084   0.00000   0.00026   0.00026   2.19576
   A12        2.19550  -0.00206   0.00000  -0.00083  -0.00083   2.19467
   A13        1.89218   0.00209   0.00000   0.00101   0.00099   1.89317
   A14        2.19550   0.00765   0.00000   0.00277   0.00273   2.19824
   A15        2.19550  -0.00974   0.00000  -0.00377  -0.00381   2.19170
   A16        1.91063  -0.07715   0.00000  -0.03142  -0.03210   1.87853
   A17        1.91063   0.31743   0.00000   0.13452   0.13471   2.04534
   A18        1.91063  -0.08088   0.00000  -0.03407  -0.03374   1.87689
   A19        1.91063  -0.06765   0.00000  -0.02678  -0.02737   1.88327
   A20        1.91063   0.02034   0.00000   0.00495   0.00347   1.91411
   A21        1.91063  -0.11210   0.00000  -0.04720  -0.04697   1.86367
   A22        2.38820   0.51744   0.00000   0.19473   0.19473   2.58293
   A23        1.91063  -0.00584   0.00000  -0.00250  -0.00251   1.90812
   A24        1.91063  -0.00679   0.00000  -0.00294  -0.00295   1.90769
   A25        1.91063   0.00831   0.00000   0.00329   0.00329   1.91393
   A26        1.91063  -0.00102   0.00000  -0.00061  -0.00062   1.91001
   A27        1.91063   0.00255   0.00000   0.00134   0.00134   1.91198
   A28        1.91063   0.00279   0.00000   0.00143   0.00143   1.91206
   A29        1.91063  -0.00112   0.00000  -0.00042  -0.00042   1.91022
   A30        1.91063  -0.00111   0.00000  -0.00042  -0.00042   1.91021
   A31        1.91063   0.00450   0.00000   0.00181   0.00181   1.91244
   A32        1.91063  -0.00073   0.00000  -0.00046  -0.00046   1.91018
   A33        1.91063  -0.00072   0.00000  -0.00023  -0.00023   1.91040
   A34        1.91063  -0.00082   0.00000  -0.00028  -0.00028   1.91035
   A35        1.91063  -0.00155   0.00000  -0.00058  -0.00058   1.91005
   A36        1.91063  -0.00160   0.00000  -0.00060  -0.00060   1.91003
   A37        1.91063   0.00626   0.00000   0.00251   0.00251   1.91314
   A38        1.91063  -0.00076   0.00000  -0.00051  -0.00051   1.91012
   A39        1.91063  -0.00119   0.00000  -0.00041  -0.00041   1.91022
   A40        1.91063  -0.00118   0.00000  -0.00041  -0.00041   1.91023
   A41        1.91063   0.00302   0.00000   0.00126   0.00126   1.91189
   A42        1.91063   0.00486   0.00000   0.00204   0.00203   1.91267
   A43        1.91063   0.00302   0.00000   0.00126   0.00126   1.91189
   A44        1.91063  -0.00384   0.00000  -0.00160  -0.00160   1.90903
   A45        1.91063  -0.00324   0.00000  -0.00136  -0.00137   1.90927
   A46        1.91063  -0.00383   0.00000  -0.00159  -0.00160   1.90904
   A47        1.91063  -0.00276   0.00000  -0.00182  -0.00186   1.90877
   A48        1.91063   0.04606   0.00000   0.01840   0.01840   1.92903
   A49        1.91063   0.02305   0.00000   0.00881   0.00879   1.91943
   A50        1.91063   0.04978   0.00000   0.01846   0.01824   1.92887
   A51        1.91063  -0.06459   0.00000  -0.02484  -0.02496   1.88568
   A52        1.91063  -0.05154   0.00000  -0.01901  -0.01911   1.89153
   A53        1.91063  -0.02153   0.00000  -0.00810  -0.00810   1.90253
   A54        1.45064   0.11475   0.00000   0.04841   0.04810   1.49874
   A55        2.81953  -0.08856   0.00000  -0.03794  -0.03793   2.78160
   A56        0.91600  -0.08346   0.00000  -0.03558  -0.03559   0.88041
   A57        1.34927   0.04484   0.00000   0.02010   0.02026   1.36952
   A58        1.91063  -0.06298   0.00000  -0.02696  -0.02716   1.88347
   A59        1.91063   0.02260   0.00000   0.00895   0.00912   1.91975
   A60        1.91063   0.04184   0.00000   0.01756   0.01711   1.92774
[...]
   D66        1.06614   0.00001  -0.00061  -0.00058  -0.00119   1.06495
   D67        1.15846  -0.00067  -0.00381  -0.01193  -0.01574   1.14273
   D68       -0.95844  -0.00049  -0.00364  -0.01219  -0.01584  -0.97428
   D69       -3.07543  -0.00070  -0.00351  -0.01173  -0.01523  -3.09067
   D70       -2.98261  -0.00078  -0.00741  -0.02083  -0.02820  -3.01081
   D71        1.07081  -0.00025  -0.00995  -0.01958  -0.02954   1.04127
   D72       -3.12943  -0.00037  -0.00983  -0.02097  -0.03084   3.12292
   D73       -1.04985  -0.00014  -0.00984  -0.01988  -0.02972  -1.07957
         Item               Value     Threshold  Converged?
 Maximum Force            0.002523     0.000450     NO 
 RMS     Force            0.000293     0.000300     YES
 Maximum Displacement     0.110237     0.001800     NO 
 RMS     Displacement     0.028637     0.001200     NO 
 Predicted change in Energy=-1.737730D-05
 GradGradGradGradGradGradGradGradGradGradGradGradGradGradGradGradGradGrad

                          Input orientation:                          
 ---------------------------------------------------------------------
 Center     Atomic      Atomic             Coordinates (Angstroms)
 Number     Number       Type             X           Y           Z
 ---------------------------------------------------------------------
      1          6           0       -0.920238   -3.148093    0.849926
      2          6           0        0.324311   -3.096008    1.384633
      3          6           0       -0.748100   -1.270019    1.970751
      4          7           0       -1.576482   -2.001802    1.239713
      5          1           0       -1.383570   -3.865793    0.194938
      6          1           0        1.161978   -3.768033    1.304764
      7          1           0       -0.952098   -0.276477    2.330493
      8          7           0        0.406799   -1.915834    2.095426
      9          6           0        1.629232   -1.337921    2.634424
     10          1           0        1.989123   -1.935250    3.471795
     11          1           0        2.372356   -1.295852    1.840249
     12          1           0        1.417918   -0.322780    2.961543
     13          6           0       -2.913904   -1.587738    0.800600
     14          1           0       -2.956307   -0.504085    0.927282
     15          1           0       -2.951031   -1.773024   -0.272914
     16          6           0       -4.010239   -2.311570    1.570532
     17          1           0       -3.904980   -3.393989    1.431023
     18          1           0       -3.894609   -2.119766    2.643277
     19          6           0       -5.396853   -1.867990    1.111114
     20          1           0       -5.499799   -0.788579    1.262106
     21          1           0       -5.495348   -2.037779    0.033874
     22          6           0       -6.508060   -2.604093    1.853493
     23          1           0       -6.437044   -2.438071    2.931713
     24          1           0       -7.494798   -2.268994    1.530113
     25          1           0       -6.448138   -3.681588    1.679525
     26         16           0       -0.242121    0.148228   -0.938944
     27          8           0       -1.038383   -1.001254   -1.390761
     28          8           0        0.249171    1.013961   -1.993237
     29          8           0       -0.788543    0.809829    0.252228
     30          8           0        1.127233   -0.561117   -0.281212
     31          6           0        1.931440   -1.244753   -1.229022
     32          1           0        2.273135   -0.560960   -2.008543
     33          1           0        2.793819   -1.643455   -0.690774
     34          1           0        1.370238   -2.067599   -1.682403
 ---------------------------------------------------------------------
                    Distance matrix (angstroms):
                    1          2          3          4          5
     1  C    0.000000
     2  C    1.355553   0.000000
     3  C    2.193865   2.197234   0.000000
     4  N    1.377162   2.198022   1.325194   0.000000
     5  H    1.076466   2.219189   3.208641   2.145515   0.000000
     6  H    2.219645   1.076885   3.214344   3.259289   2.778683
     7  H    3.230986   3.236298   1.076176   2.134573   4.198804
     8  N    2.197899   1.380160   1.329064   2.161721   3.258775
     9  C    3.600132   2.521045   2.469166   3.558449   4.627981
    10  H    4.099947   2.911220   3.191873   4.207156   5.083291
    11  H    3.905471   2.764532   3.123290   4.056147   4.839279
    12  H    4.231819   3.372449   2.563311   3.840605   5.296733
    13  C    2.532163   3.619670   2.482118   1.467299   2.810389
    14  H    3.338015   4.205911   2.559621   2.060263   3.782977
    15  H    2.697352   3.902001   3.184329   2.056639   2.656220
    16  C    3.281334   4.408880   3.447688   2.475595   3.347724
    17  H    3.050709   4.240029   3.842974   2.719686   2.847458
    18  H    3.622216   4.509603   3.327895   2.712494   3.917690
    19  C    4.663364   5.857863   4.765233   3.824876   4.575701
    20  H    5.168132   6.265740   4.828313   4.106681   5.248947
    21  H    4.778114   6.067358   5.184334   4.100348   4.502699
    22  C    5.703230   6.866083   5.913598   5.005990   5.532006
    23  H    5.939118   6.967228   5.886585   5.165101   5.921650
    24  H    6.667857   7.864069   6.834476   5.931458   6.455972
    25  H    5.615206   6.804111   6.196040   5.171861   5.280888
    26  S    3.811251   4.030499   3.276243   3.339115   4.324461
    27  O    3.105407   3.734667   3.384710   2.865316   3.292291
    28  O    5.174339   5.320478   4.682340   4.783283   5.591597
    29  O    4.004964   4.216200   2.698282   3.082408   4.713680
    30  O    3.487701   3.137737   3.015088   3.420359   4.177528
    31  C    4.009587   3.583462   4.173622   4.355833   4.459462
    32  H    5.006170   4.662406   5.046326   5.238964   5.398958
    33  H    4.293240   3.537753   4.446163   4.791109   4.813923
    34  H    3.581401   3.399749   4.297560   4.150451   3.787000
                    6          7          8          9         10
     6  H    0.000000
     7  H    4.208610   0.000000
     8  N    2.150833   2.142276   0.000000
     9  C    2.809228   2.807544   1.455626   0.000000
    10  H    2.956228   3.564391   2.097265   1.089731   0.000000
    11  H    2.804182   3.511617   2.076754   1.088447   1.793779
    12  H    3.831473   2.453028   2.076136   1.087277   1.785131
    13  C    4.649804   2.812235   3.579286   4.905651   5.594258
    14  H    5.268407   2.457165   3.829892   4.963546   5.742827
    15  H    4.835904   3.607369   4.111502   5.442494   6.201152
    16  C    5.379938   3.751182   4.465685   5.820953   6.304661
    17  H    5.082314   4.387191   4.606280   6.025205   6.405710
    18  H    5.484293   3.486248   4.340949   5.578905   5.944644
    19  C    6.831246   4.876028   5.886725   7.208836   7.754352
    20  H    7.297824   4.699499   6.070669   7.280668   7.891865
    21  H    6.994921   5.386814   6.253016   7.616581   8.236936
    22  C    7.777232   6.042685   6.953237   8.272156   8.675734
    23  H    7.884218   5.926094   6.914499   8.146381   8.458417
    24  H    8.788496   6.886049   7.929662   9.237659   9.686397
    25  H    7.619828   6.498077   7.090911   8.464545   8.800528
    26  S    4.726819   3.372486   3.726774   4.298786   5.364136
    27  O    4.445504   3.792160   3.883105   4.840623   5.803671
    28  O    5.880262   4.669359   5.032465   5.371328   6.449174
    29  O    5.086175   2.350744   3.500779   4.016632   5.061275
    30  O    3.577825   3.350468   2.828902   3.058817   4.088540
    31  C    3.657743   4.682146   3.718445   3.876367   4.751610
    32  H    4.743205   5.413898   4.707596   4.751361   5.657159
    33  H    3.340495   5.002857   3.678990   3.536461   4.249666
    34  H    3.443546   4.970381   3.901696   4.385716   5.192908
                   11         12         13         14         15
    11  H    0.000000
    12  H    1.764970   0.000000
    13  C    5.395425   5.003447   0.000000
    14  H    5.463977   4.827519   1.091857   0.000000
    15  H    5.747312   5.626068   1.090018   1.746626   0.000000
    16  C    6.468534   5.946014   1.522720   2.188960   2.193227
    17  H    6.631334   6.333093   2.154578   3.083064   2.537902
    18  H    6.371698   5.617241   2.154135   2.536825   3.084597
    19  C    7.824294   7.228615   2.517934   2.801838   2.811867
    20  H    7.909639   7.138618   2.745632   2.581162   3.133949
    21  H    8.106430   7.701021   2.730248   3.097923   2.576386
    22  C    8.976271   8.321856   3.880659   4.228812   4.226669
    23  H    8.949943   8.134850   4.204430   4.457980   4.781654
    24  H    9.919875   9.234352   4.688378   4.906752   4.913524
    25  H    9.138855   8.648699   4.200896   4.780720   4.436710
    26  S    4.079800   4.265135   3.630154   3.357844   3.387182
    27  O    4.707372   5.043441   2.943400   3.049414   2.345940
    28  O    4.953661   5.263334   4.957762   4.594451   4.579093
    29  O    4.116671   3.673100   3.250569   2.623217   3.409290
    30  O    2.567247   3.264470   4.307559   4.258992   4.254530
    31  C    3.101200   4.321409   5.264443   5.393357   5.003172
    32  H    3.919581   5.048751   5.987565   5.997446   5.636792
    33  H    2.589312   4.120280   5.899611   6.081136   5.761484
    34  H    3.742848   4.961139   4.974881   5.289047   4.554865
                   16         17         18         19         20
    16  C    0.000000
    17  H    1.096437   0.000000
    18  H    1.095874   1.758781   0.000000
    19  C    1.526607   2.157939   2.160475   0.000000
    20  H    2.152538   3.059435   2.501265   1.094771   0.000000
    21  H    2.154491   2.514081   3.062364   1.094977   1.751877
    22  C    2.530760   2.752897   2.772806   1.525698   2.159263
    23  H    2.785355   3.094705   2.578467   2.172918   2.527220
    24  H    3.485054   3.763273   3.771308   2.176635   2.498695
    25  H    2.798604   2.571404   3.144617   2.171965   3.072961
    26  S    5.152357   5.619660   5.596139   5.902468   5.776280
    27  O    4.395237   4.680280   5.067796   5.099692   5.194917
    28  O    6.473189   6.957913   6.963363   7.058344   6.848144
    29  O    4.675509   5.364124   4.893597   5.398603   5.076485
    30  O    5.734689   6.023295   6.016720   6.797807   6.808167
    31  C    6.654257   6.764529   7.050049   7.718065   7.850931
    32  H    7.440108   7.617466   7.881014   8.382679   8.436081
    33  H    7.201048   7.241568   7.488514   8.389537   8.563216
    34  H    6.292109   6.267428   6.814165   7.323735   7.583102
                   21         22         23         24         25
    21  H    0.000000
    22  C    2.158079   0.000000
    23  H    3.073190   1.093237   0.000000
    24  H    2.507986   1.091109   1.764062   0.000000
    25  H    2.513580   1.093093   1.764776   1.764439   0.000000
    26  S    5.772469   7.391547   7.749065   8.033713   7.748453
    27  O    4.792547   6.558325   7.063552   7.198886   6.773204
    28  O    6.813354   8.576002   8.993172   9.119257   8.966120
    29  O    5.505503   6.850677   7.045145   7.489059   7.364850
    30  O    6.792525   8.187088   8.429955   8.974251   8.424255
    31  C    7.575023   9.087070   9.421637   9.875012   9.198648
    32  H    8.167117   9.808114  10.188077  10.528628   9.969994
    33  H    8.330120   9.691288   9.947998  10.544159   9.756335
    34  H    7.076918   8.652049   9.076396   9.431314   8.662247
                   26         27         28         29         30
    26  S    0.000000
    27  O    1.469517   0.000000
    28  O    1.449964   2.466144   0.000000
    29  O    1.468054   2.458018   2.482062   0.000000
    30  O    1.676578   2.472795   2.486542   2.415419   0.000000
    31  C    2.597866   2.984175   2.918191   3.716680   1.418608
    32  H    2.823739   3.397303   2.564573   4.045246   2.072864
    33  H    3.533928   3.948187   3.903012   4.443104   2.028967
    34  H    2.839422   2.650208   3.293845   4.084449   2.071684
                   31         32         33         34
    31  C    0.000000
    32  H    1.091780   0.000000
    33  H    1.091958   1.783094   0.000000
    34  H    1.094339   1.786492   1.786004   0.000000
 Stoichiometry    C9H18N2O4S
 Framework group  C1[X(C9H18N2O4S)]
 Deg. of freedom    96
 Full point group                 C1      NOp   1
 Largest Abelian subgroup         C1      NOp   1
 Largest concise Abelian subgroup C1      NOp   1
                         Standard orientation:                         
 ---------------------------------------------------------------------
 Center     Atomic      Atomic             Coordinates (Angstroms)
 Number     Number       Type             X           Y           Z
 ---------------------------------------------------------------------
      1          6           0       -0.437843    1.370878    1.290584
      2          6           0        0.563058    2.229214    0.975968
      3          6           0       -0.094695    1.239730   -0.872306
      4          7           0       -0.841518    0.772551    0.117714
      5          1           0       -0.867960    1.096483    2.238469
      6          1           0        1.172165    2.868811    1.592074
      7          1           0       -0.116216    0.881541   -1.886896
      8          7           0        0.753247    2.141423   -0.388203
      9          6           0        1.875539    2.706764   -1.122842
     10          1           0        1.800365    3.793682   -1.144578
     11          1           0        2.799310    2.391381   -0.641286
     12          1           0        1.862645    2.309796   -2.134979
     13          6           0       -1.828671   -0.306743    0.000998
     14          1           0       -1.609787   -0.822325   -0.936240
     15          1           0       -1.601541   -1.012568    0.799975
     16          6           0       -3.254807    0.223734    0.059358
     17          1           0       -3.411960    0.754026    1.006071
     18          1           0       -3.407913    0.956469   -0.741016
     19          6           0       -4.273179   -0.906134   -0.070437
     20          1           0       -4.118056   -1.425392   -1.021664
     21          1           0       -4.097064   -1.647446    0.715956
     22          6           0       -5.708301   -0.395170    0.013797
     23          1           0       -5.910939    0.338060   -0.771365
     24          1           0       -6.428738   -1.207207   -0.096126
     25          1           0       -5.895712    0.089070    0.975692
     26         16           0        1.599529   -1.483230   -0.202338
     27          8           0        0.687602   -1.503284    0.949820
     28          8           0        2.591613   -2.540413   -0.225328
     29          8           0        0.932291   -1.181651   -1.474748
     30          8           0        2.472269   -0.068533    0.016455
     31          6           0        3.299415   -0.076498    1.168937
     32          1           0        4.025038   -0.890560    1.116430
     33          1           0        3.826100    0.879740    1.193157
     34          1           0        2.692406   -0.183301    2.073211
 ---------------------------------------------------------------------
 Rotational constants (GHZ):      0.7128413      0.3028513      0.2447674
 Standard basis: 6-311+G(d) (5D, 7F)
 There are   414 symmetry adapted basis functions of A   symmetry.
 Integral buffers will be    131072 words long.
 Raffenetti 2 integral format.
 Two-electron integral symmetry is turned on.
   414 basis functions,   680 primitive gaussians,   430 cartesian basis functions
    67 alpha electrons       67 beta electrons
       nuclear repulsion energy      1421.6917612874 Hartrees.
 NAtoms=   34 NActive=   34 NUniq=   34 SFac= 7.50D-01 NAtFMM=   80 NAOKFM=F Big=F
 One-electron integrals computed using PRISM.
 NBasis=   414 RedAO= T  NBF=   414
 NBsUse=   414 1.00D-06 NBFU=   414
 Initial guess read from the read-write file.
 B after Tr=     0.000000    0.000000    0.000000
         Rot=    1.000000    0.000000    0.000000    0.000000 Ang=   0.00 deg.
 Initial guess orbital symmetries:
       Occupied  (A) (A) (A) (A) (A) (A) (A) (A) (A) (A) (A) (A)
                 (A) (A) (A) (A) (A) (A) (A) (A) (A) (A) (A) (A)
                 (A) (A) (A) (A) (A) (A) (A) (A) (A) (A) (A) (A)
                 (A) (A) (A) (A) (A) (A) (A) (A) (A) (A) (A) (A)
                 (A) (A) (A) (A) (A) (A) (A) (A) (A) (A) (A) (A)
                 (A) (A) (A) (A) (A) (A) (A)
       Virtual   (A) (A) (A) (A) (A) (A) (A) (A) (A) (A) (A) (A)
                 (A) (A) (A) (A) (A) (A) (A) (A) (A) (A) (A) (A)
                 (A) (A) (A) (A) (A) (A) (A) (A) (A) (A) (A) (A)
                 (A) (A) (A) (A) (A) (A) (A) (A) (A) (A) (A) (A)
                 (A) (A) (A) (A) (A) (A) (A) (A) (A) (A) (A) (A)
                 (A) (A) (A) (A) (A) (A) (A) (A) (A) (A) (A) (A)
                 (A) (A) (A) (A) (A) (A) (A) (A) (A) (A) (A) (A)
                 (A) (A) (A) (A) (A) (A) (A) (A) (A) (A) (A) (A)
                 (A) (A) (A) (A) (A) (A) (A) (A) (A) (A) (A) (A)
                 (A) (A) (A) (A) (A) (A) (A) (A) (A) (A) (A) (A)
                 (A) (A) (A) (A) (A) (A) (A) (A) (A) (A) (A) (A)
                 (A) (A) (A) (A) (A) (A) (A) (A) (A) (A) (A) (A)
                 (A) (A) (A) (A) (A) (A) (A) (A) (A) (A) (A) (A)
                 (A) (A) (A) (A) (A) (A) (A) (A) (A) (A) (A) (A)
                 (A) (A) (A) (A) (A) (A) (A) (A) (A) (A) (A) (A)
                 (A) (A) (A) (A) (A) (A) (A) (A) (A) (A) (A) (A)
                 (A) (A) (A) (A) (A) (A) (A) (A) (A) (A) (A) (A)
                 (A) (A) (A) (A) (A) (A) (A) (A) (A) (A) (A) (A)
                 (A) (A) (A) (A) (A) (A) (A) (A) (A) (A) (A) (A)
                 (A) (A) (A) (A) (A) (A) (A) (A) (A) (A) (A) (A)
                 (A) (A) (A) (A) (A) (A) (A) (A) (A) (A) (A) (A)
                 (A) (A) (A) (A) (A) (A) (A) (A) (A) (A) (A) (A)
                 (A) (A) (A) (A) (A) (A) (A) (A) (A) (A) (A) (A)
                 (A) (A) (A) (A) (A) (A) (A) (A) (A) (A) (A) (A)
                 (A) (A) (A) (A) (A) (A) (A) (A) (A) (A) (A) (A)
                 (A) (A) (A) (A) (A) (A) (A) (A) (A) (A) (A) (A)
                 (A) (A) (A) (A) (A) (A) (A) (A) (A) (A) (A) (A)
                 (A) (A) (A) (A) (A) (A) (A) (A) (A) (A) (A) (A)
                 (A) (A) (A) (A) (A) (A) (A) (A) (A) (A) (A)
 Harris functional with IExCor= 1009 diagonalized for initial guess.
 ExpMin= 4.05D-02 ExpMax= 9.34D+04 ExpMxC= 3.17D+03 IAcc=2 IRadAn=         0 AccDes= 0.00D+00
 HarFok:  IExCor= 1009 AccDes= 0.00D+00 IRadAn=         0 IDoV= 1
 ScaDFX=  1.000000  1.000000  1.000000  1.000000
 FoFCou: FMM=F IPFlag=           0 FMFlag=      100000 FMFlg1=           0
         NFxFlg=           0 DoJE=T BraDBF=F KetDBF=T FulRan=T
         Omega=  0.000000  0.000000  1.000000  0.000000  0.000000 ICntrl=     500 IOpCl=  0
         NMat0=    1 NMatS0=    1 NMatT0=    0 NMatD0=    1 NMtDS0=    0 NMtDT0=    0
         I1Cent=           4 NGrid=           0.
 Petite list used in FoFCou.
 Requested convergence on RMS density matrix=1.00D-08 within 128 cycles.
 Requested convergence on MAX density matrix=1.00D-06.
 Requested convergence on             energy=1.00D-06.
 No special actions if energy rises.
          energy=1.00D-06.
 No special actions if energy rises.
 FulRan=T
         Omega=  0.000000  0.000000  1.000000  0.000000  0.000000 ICntrl=     500 IOpCl=  0
         NMat0=    1 NMatS0=    1 NMatT0=    0 NMatD0=    1 NMtDS0=    0 NMtDT0=    0
         I1Cent=           4 NGrid=           0.
 Petite list used in FoFCou.
 Requested convergence on RMS density matrix=1.00D-08 within 128 cycles.
 Requested convergence on MAX density matrix=1.00D-06.
 Requested convergence on             energy=1.00D-06.
 No special actions if energy rises.
