 Entering Gaussian System, Link 0=g09
 Input=CH3_M_L.com
 Output=CH3_M_L.log
 Initial command:
 /sw/contrib/gaussian/g09/E01/g09/l1.exe "/scr/Gau-24938.inp" -scrdir="/scr/"
 Entering Link 1 = /sw/contrib/gaussian/g09/E01/g09/l1.exe PID=     24939.
  
 Copyright (c) 1988,1990,1992,1993,1995,1998,2003,2009,2015,
            Gaussian, Inc.  All Rights Reserved.
  
 This is part of the Gaussian(R) 09 program.  It is based on
 the Gaussian(R) 03 system (copyright 2003, Gaussian, Inc.),
 the Gaussian(R) 98 system (copyright 1998, Gaussian, Inc.),
 the Gaussian(R) 94 system (copyright 1995, Gaussian, Inc.),
 the Gaussian 92(TM) system (copyright 1992, Gaussian, Inc.),
 the Gaussian 90(TM) system (copyright 1990, Gaussian, Inc.),
 the Gaussian 88(TM) system (copyright 1988, Gaussian, Inc.),
 the Gaussian 86(TM) system (copyright 1986, Carnegie Mellon
 University), and the Gaussian 82(TM) system (copyright 1983,
 Carnegie Mellon University). Gaussian is a federally registered
 trademark of Gaussian, Inc.
  
 This software contains proprietary and confidential information,
 including trade secrets, belonging to Gaussian, Inc.
  
 This software is provided under written license and may be
 used, copied, transmitted, or stored only in accord with that
 written license.
  
 The following legend is applicable only to US Government
 contracts under FAR:
  
                    RESTRICTED RIGHTS LEGEND
  
 Use, reproduction and disclosure by the US Government is
 subject to restrictions as set forth in subparagraphs (a)
 and (c) of the Commercial Computer Software - Restricted
 Rights clause in FAR 52.227-19.
  
 Gaussian, Inc.
 340 Quinnipiac St., Bldg. 40, Wallingford CT 06492
  
  
 ---------------------------------------------------------------
 Warning -- This program may not be used in any manner that
 competes with the business of Gaussian, Inc. or will provide
 assistance to any competitor of Gaussian, Inc.  The licensee
 of this program is prohibited from giving any competitor of
 Gaussian, Inc. access to this program.  By using this program,
 the user acknowledges that Gaussian, Inc. is engaged in the
 business of creating and licensing software in the field of
 computational chemistry and represents and warrants to the
 licensee that it is not a competitor of Gaussian, Inc. and that
 it will not use this program in any manner prohibited above.
 ---------------------------------------------------------------
  

 Cite this work as:
 Gaussian 09, Revision E.01,
 M. J. Frisch, G. W. Trucks, H. B. Schlegel, G. E. Scuseria, 
 M. A. Robb, J. R. Cheeseman, G. Scalmani, V. Barone, B. Mennucci, 
 G. A. Petersson, H. Nakatsuji, M. Caricato, X. Li, H. P. Hratchian, 
 A. F. Izmaylov, J. Bloino, G. Zheng, J. L. Sonnenberg, M. Hada, 
 M. Ehara, K. Toyota, R. Fukuda, J. Hasegawa, M. Ishida, T. Nakajima, 
 Y. Honda, O. Kitao, H. Nakai, T. Vreven, J. A. Montgomery, Jr., 
 J. E. Peralta, F. Ogliaro, M. Bearpark, J. J. Heyd, E. Brothers, 
 K. N. Kudin, V. N. Staroverov, T. Keith, R. Kobayashi, J. Normand, 
 K. Raghavachari, A. Rendell, J. C. Burant, S. S. Iyengar, J. Tomasi, 
 M. Cossi, N. Rega, J. M. Millam, M. Klene, J. E. Knox, J. B. Cross, 
 V. Bakken, C. Adamo, J. Jaramillo, R. Gomperts, R. E. Stratmann, 
 O. Yazyev, A. J. Austin, R. Cammi, C. Pomelli, J. W. Ochterski, 
 R. L. Martin, K. Morokuma, V. G. Zakrzewski, G. A. Voth, 
 P. Salvador, J. J. Dannenberg, S. Dapprich, A. D. Daniels, 
 O. Farkas, J. B. Foresman, J. V. Ortiz, J. Cioslowski, 
 and D. J. Fox, Gaussian, Inc., Wallingford CT, 2013.
 
 ******************************************
 Gaussian 09:  ES64L-G09RevE.01 30-Nov-2015
                23-Feb-2017 
 ******************************************
 %NProcShared=8
 Will use up to    8 processors via shared memory.
 ------------------
 #n MP2/LANL2DZ Opt
 ------------------
 1/18=20,19=15,38=1/1,3;
 2/9=110,12=2,17=6,18=5,40=1/2;
 3/5=6,6=3,11=9,16=1,25=1,30=1,71=1/1,2,3;
 4//1;
 5/5=2,38=5/2;
 8/6=4,10=1/1;
 9/15=2,16=-3/6;
 10/5=1/2;
 6/7=2,8=2,9=2,10=2/1;
 7/12=2/1,2,3,16;
 1/18=20,19=15/3(2);
 2/9=110/2;
 99//99;
 2/9=110/2;
 3/5=6,6=3,11=9,16=1,25=1,30=1,71=1/1,2,3;
 4/5=5,16=3,69=1/1;
 5/5=2,38=5/2;
 8/6=4,10=1/1;
 9/15=2,16=-3/6;
 10/5=1/2;
 7/12=2/1,2,3,16;
 1/18=20,19=15/3(-8);
 2/9=110/2;
 6/7=2,8=2,9=2,10=2/1;
 99//99;
 ------------------
 CH3_MP2/6-31G(d,p)
 ------------------
 Symbolic Z-matrix:
 Charge =  0 Multiplicity = 1
 C                    -1.76985   1.60508   0. 
 C                    -0.94833   0.30637   0. 
 H                    -2.70278   1.46556   0.5507 
 H                    -2.01181   1.90264  -1.02275 
 H                    -1.2057    2.41255   0.47205 
 H                    -1.51248  -0.5011   -0.47205 
 H                    -0.70637   0.00881   1.02275 
 H                    -0.0154    0.44589  -0.5507 
 

 GradGradGradGradGradGradGradGradGradGradGradGradGradGradGradGradGradGrad
 Berny optimization.
 Initialization pass.
                           ----------------------------
                           !    Initial Parameters    !
                           ! (Angstroms and Degrees)  !
 --------------------------                            --------------------------
 ! Name  Definition              Value          Derivative Info.                !
 --------------------------------------------------------------------------------
 ! R1    R(1,2)                  1.5367         estimate D2E/DX2                !
 ! R2    R(1,3)                  1.0923         estimate D2E/DX2                !
 ! R3    R(1,4)                  1.0923         estimate D2E/DX2                !
 ! R4    R(1,5)                  1.0923         estimate D2E/DX2                !
 ! R5    R(2,6)                  1.0923         estimate D2E/DX2                !
 ! R6    R(2,7)                  1.0923         estimate D2E/DX2                !
 ! R7    R(2,8)                  1.0923         estimate D2E/DX2                !
 ! A1    A(2,1,3)              110.4046         estimate D2E/DX2                !
 ! A2    A(2,1,4)              110.4044         estimate D2E/DX2                !
 ! A3    A(2,1,5)              110.404          estimate D2E/DX2                !
 ! A4    A(3,1,4)              108.5221         estimate D2E/DX2                !
 ! A5    A(3,1,5)              108.5221         estimate D2E/DX2                !
 ! A6    A(4,1,5)              108.5224         estimate D2E/DX2                !
 ! A7    A(1,2,6)              110.404          estimate D2E/DX2                !
 ! A8    A(1,2,7)              110.4044         estimate D2E/DX2                !
 ! A9    A(1,2,8)              110.4046         estimate D2E/DX2                !
 ! A10   A(6,2,7)              108.5224         estimate D2E/DX2                !
 ! A11   A(6,2,8)              108.5221         estimate D2E/DX2                !
 ! A12   A(7,2,8)              108.5221         estimate D2E/DX2                !
 ! D1    D(3,1,2,6)             60.0001         estimate D2E/DX2                !
 ! D2    D(3,1,2,7)            -59.9999         estimate D2E/DX2                !
 ! D3    D(3,1,2,8)            180.0            estimate D2E/DX2                !
 ! D4    D(4,1,2,6)            -59.9999         estimate D2E/DX2                !
 ! D5    D(4,1,2,7)            180.0            estimate D2E/DX2                !
 ! D6    D(4,1,2,8)             59.9999         estimate D2E/DX2                !
 ! D7    D(5,1,2,6)           -180.0            estimate D2E/DX2                !
 ! D8    D(5,1,2,7)             59.9999         estimate D2E/DX2                !
 ! D9    D(5,1,2,8)            -60.0001         estimate D2E/DX2                !
 --------------------------------------------------------------------------------
 Trust Radius=3.00D-01 FncErr=1.00D-07 GrdErr=1.00D-07
 Number of steps in this run=     38 maximum allowed number of steps=    100.
 GradGradGradGradGradGradGradGradGradGradGradGradGradGradGradGradGradGrad

                          Input orientation:                          
 ---------------------------------------------------------------------
 Center     Atomic      Atomic             Coordinates (Angstroms)
 Number     Number       Type             X           Y           Z
 ---------------------------------------------------------------------
      1          6           0       -1.769850    1.605080    0.000000
      2          6           0       -0.948330    0.306370    0.000000
      3          1           0       -2.702780    1.465560    0.550700
      4          1           0       -2.011810    1.902640   -1.022750
      5          1           0       -1.205700    2.412550    0.472050
      6          1           0       -1.512480   -0.501100   -0.472050
      7          1           0       -0.706370    0.008810    1.022750
      8          1           0       -0.015400    0.445890   -0.550700
 ---------------------------------------------------------------------
                    Distance matrix (angstroms):
                    1          2          3          4          5
     1  C    0.000000
     2  C    1.536731   0.000000
     3  H    1.092289   2.173726   0.000000
     4  H    1.092293   2.173726   1.773196   0.000000
     5  H    1.092293   2.173721   1.773196   1.773203   0.000000
     6  H    2.173721   1.092293   2.516065   2.516062   3.078116
     7  H    2.173726   1.092293   2.516069   3.078122   2.516062
     8  H    2.173726   1.092289   3.078120   2.516069   2.516065
                    6          7          8
     6  H    0.000000
     7  H    1.773203   0.000000
     8  H    1.773196   1.773196   0.000000
 This structure is nearly, but not quite of a higher symmetry.
 Consider Symm=Loose if the higher symmetry is desired.
 Stoichiometry    C2H6
 Framework group  CI[X(C2H6)]
 Deg. of freedom     9
 Full point group                 CI      NOp   2
 Largest Abelian subgroup         CI      NOp   2
 Largest concise Abelian subgroup CI      NOp   2
                         Standard orientation:                         
 ---------------------------------------------------------------------
 Center     Atomic      Atomic             Coordinates (Angstroms)
 Number     Number       Type             X           Y           Z
 ---------------------------------------------------------------------
      1          6           0       -0.410760    0.649355    0.000000
      2          6           0        0.410760   -0.649355    0.000000
      3          1           0       -1.343690    0.509835    0.550700
      4          1           0       -0.652720    0.946915   -1.022750
      5          1           0        0.153390    1.456825    0.472050
      6          1           0       -0.153390   -1.456825   -0.472050
      7          1           0        0.652720   -0.946915    1.022750
      8          1           0        1.343690   -0.509835   -0.550700
 ---------------------------------------------------------------------
 Rotational constants (GHZ):     79.7420612     19.9566490     19.9566228
 Standard basis: LANL2DZ (5D, 7F)
 There are    15 symmetry adapted cartesian basis functions of AG  symmetry.
 There are    15 symmetry adapted cartesian basis functions of AU  symmetry.
 There are    15 symmetry adapted basis functions of AG  symmetry.
 There are    15 symmetry adapted basis functions of AU  symmetry.
    30 basis functions,    74 primitive gaussians,    30 cartesian basis functions
     9 alpha electrons        9 beta electrons
       nuclear repulsion energy        42.1696170358 Hartrees.
 NAtoms=    8 NActive=    8 NUniq=    4 SFac= 4.00D+00 NAtFMM=   60 NAOKFM=F Big=F
 Integral buffers will be    131072 words long.
 Raffenetti 1 integral format.
 Two-electron integral symmetry is turned on.
 One-electron integrals computed using PRISM.
   2 Symmetry operations used in ECPInt.
 ECPInt:  NShTT=     253 NPrTT=    1559 LenC2=     254 LenP2D=    1400.
 LDataN:  DoStor=T MaxTD1= 2 Len=   12
 NBasis=    30 RedAO= T EigKep=  6.44D-03  NBF=    15    15
 NBsUse=    30 1.00D-06 EigRej= -1.00D+00 NBFU=    15    15
 ExpMin= 1.15D-01 ExpMax= 4.23D+03 ExpMxC= 1.46D+02 IAcc=1 IRadAn=         1 AccDes= 0.00D+00
 Harris functional with IExCor=  205 and IRadAn=       1 diagonalized for initial guess.
 HarFok:  IExCor=  205 AccDes= 0.00D+00 IRadAn=         1 IDoV= 1 UseB2=F ITyADJ=14
 ICtDFT=  3500011 ScaDFX=  1.000000  1.000000  1.000000  1.000000
 FoFCou: FMM=F IPFlag=           0 FMFlag=      100000 FMFlg1=           0
         NFxFlg=           0 DoJE=T BraDBF=F KetDBF=T FulRan=T
         wScrn=  0.000000 ICntrl=     500 IOpCl=  0 I1Cent=   200000004 NGrid=           0
         NMat0=    1 NMatS0=      1 NMatT0=    0 NMatD0=    1 NMtDS0=    0 NMtDT0=    0
 Petite list used in FoFCou.
 Initial guess orbital symmetries:
       Occupied  (AG) (AU) (AG) (AU) (AU) (AU) (AG) (AG) (AG)
       Virtual   (AU) (AG) (AU) (AU) (AG) (AG) (AU) (AU) (AU) (AG)
                 (AG) (AG) (AU) (AG) (AU) (AG) (AU) (AU) (AG) (AG)
                 (AU)
 The electronic state of the initial guess is 1-AG.
 Keep R1 ints in memory in symmetry-blocked form, NReq=955573.
 Requested convergence on RMS density matrix=1.00D-08 within 128 cycles.
 Requested convergence on MAX density matrix=1.00D-06.
 Requested convergence on             energy=1.00D-06.
 No special actions if energy rises.
 SCF Done:  E(RHF) =  -79.2056342048     A.U. after    9 cycles
            NFock=  9  Conv=0.17D-08     -V/T= 1.9988
 ExpMin= 1.15D-01 ExpMax= 4.23D+03 ExpMxC= 1.46D+02 IAcc=3 IRadAn=         5 AccDes= 0.00D+00
 HarFok:  IExCor=  205 AccDes= 0.00D+00 IRadAn=         5 IDoV=-2 UseB2=F ITyADJ=14
 ICtDFT= 12500011 ScaDFX=  1.000000  1.000000  1.000000  1.000000
 Range of M.O.s used for correlation:     3    30
 NBasis=    30 NAE=     9 NBE=     9 NFC=     2 NFV=     0
 NROrb=     28 NOA=     7 NOB=     7 NVA=    21 NVB=    21
 Fully direct method using O(ONN) memory.
 JobTyp=1 Pass  1:  I=   3 to   9 NPSUse=  3 ParTrn=F ParDer=T DoDerP=T.
 Spin components of T(2) and E(2):
     alpha-alpha T2 =       0.6806958310D-02 E2=     -0.1566536398D-01
     alpha-beta  T2 =       0.5687967486D-01 E2=     -0.1448473609D+00
     beta-beta   T2 =       0.6806958310D-02 E2=     -0.1566536398D-01
 ANorm=    0.1034646602D+01
 E2 =    -0.1761780889D+00 EUMP2 =    -0.79381812293707D+02
          IDoAtm=11111111
          Differentiating once with respect to electric field.
                with respect to dipole field.
          Differentiating once with respect to nuclear coordinates.
 Keep R1 ints in memory in symmetry-blocked form, NReq=943686.
          There are     1 degrees of freedom in the 1st order CPHF.  IDoFFX=0 NUNeed=     1.
 LinEq1:  Iter=  0 NonCon=     1 RMS=3.02D-03 Max=1.69D-02 NDo=     1
 AX will form     1 AO Fock derivatives at one time.
 LinEq1:  Iter=  1 NonCon=     1 RMS=2.49D-04 Max=1.49D-03 NDo=     1
 LinEq1:  Iter=  2 NonCon=     1 RMS=1.71D-05 Max=9.20D-05 NDo=     1
 LinEq1:  Iter=  3 NonCon=     1 RMS=3.50D-06 Max=2.23D-05 NDo=     1
 LinEq1:  Iter=  4 NonCon=     1 RMS=6.20D-07 Max=3.49D-06 NDo=     1
 LinEq1:  Iter=  5 NonCon=     1 RMS=4.79D-08 Max=3.04D-07 NDo=     1
 LinEq1:  Iter=  6 NonCon=     1 RMS=4.57D-09 Max=2.62D-08 NDo=     1
 LinEq1:  Iter=  7 NonCon=     1 RMS=4.05D-10 Max=2.27D-09 NDo=     1
 LinEq1:  Iter=  8 NonCon=     0 RMS=2.65D-11 Max=1.83D-10 NDo=     1
 Linear equations converged to 1.000D-10 1.000D-09 after     8 iterations.
 End of Minotr F.D. properties file   721 does not exist.
 End of Minotr F.D. properties file   722 does not exist.
 End of Minotr F.D. properties file   788 does not exist.

 **********************************************************************

            Population analysis using the SCF density.

 **********************************************************************

 Orbital symmetries:
       Occupied  (AG) (AU) (AG) (AU) (AU) (AU) (AG) (AG) (AG)
       Virtual   (AU) (AG) (AG) (AG) (AU) (AU) (AU) (AG) (AU) (AU)
                 (AG) (AG) (AU) (AG) (AU) (AG) (AU) (AU) (AG) (AG)
                 (AU)
 The electronic state is 1-AG.
 Alpha  occ. eigenvalues --  -11.21267 -11.21210  -1.01862  -0.84091  -0.59709
 Alpha  occ. eigenvalues --   -0.59709  -0.50068  -0.48406  -0.48406
 Alpha virt. eigenvalues --    0.25253   0.27317   0.32024   0.32024   0.36859
 Alpha virt. eigenvalues --    0.36859   0.39628   0.45362   0.46682   0.46682
 Alpha virt. eigenvalues --    0.52168   0.52168   0.75188   1.16914   1.29587
 Alpha virt. eigenvalues --    1.34546   1.38860   1.38860   1.42958   1.42958
 Alpha virt. eigenvalues --    1.61908
          Condensed to atoms (all electrons):
               1          2          3          4          5          6
     1  C    5.211048   0.279320   0.384460   0.384460   0.384460  -0.047369
     2  C    0.279320   5.211048  -0.047368  -0.047369  -0.047369   0.384460
     3  H    0.384460  -0.047368   0.547095  -0.025277  -0.025277  -0.002124
     4  H    0.384460  -0.047369  -0.025277   0.547097  -0.025276  -0.002124
     5  H    0.384460  -0.047369  -0.025277  -0.025276   0.547097   0.003399
     6  H   -0.047369   0.384460  -0.002124  -0.002124   0.003399   0.547097
     7  H   -0.047369   0.384460  -0.002124   0.003399  -0.002124  -0.025276
     8  H   -0.047368   0.384460   0.003399  -0.002124  -0.002124  -0.025277
               7          8
     1  C   -0.047369  -0.047368
     2  C    0.384460   0.384460
     3  H   -0.002124   0.003399
     4  H    0.003399  -0.002124
     5  H   -0.002124  -0.002124
     6  H   -0.025276  -0.025277
     7  H    0.547097  -0.025277
     8  H   -0.025277   0.547095
 Mulliken charges:
               1
     1  C   -0.501642
     2  C   -0.501642
     3  H    0.167215
     4  H    0.167214
     5  H    0.167213
     6  H    0.167213
     7  H    0.167214
     8  H    0.167215
 Sum of Mulliken charges =   0.00000
 Mulliken charges with hydrogens summed into heavy atoms:
               1
     1  C    0.000000
     2  C    0.000000
 Electronic spatial extent (au):  <R**2>=            109.9005
 Charge=              0.0000 electrons
 Dipole moment (field-independent basis, Debye):
    X=              0.0000    Y=              0.0000    Z=              0.0000  Tot=              0.0000
 Quadrupole moment (field-independent basis, Debye-Ang):
   XX=            -15.1370   YY=            -15.4848   ZZ=            -14.9050
   XY=              0.3667   XZ=              0.0000   YZ=              0.0000
 Traceless Quadrupole moment (field-independent basis, Debye-Ang):
   XX=              0.0386   YY=             -0.3092   ZZ=              0.2706
   XY=              0.3667   XZ=              0.0000   YZ=              0.0000
 Octapole moment (field-independent basis, Debye-Ang**2):
  XXX=              0.0000  YYY=              0.0000  ZZZ=              0.0000  XYY=              0.0000
  XXY=              0.0000  XXZ=              0.0000  XZZ=              0.0000  YZZ=              0.0000
  YYZ=              0.0000  XYZ=              0.0000
 Hexadecapole moment (field-independent basis, Debye-Ang**3):
 XXXX=            -46.2847 YYYY=            -74.0034 ZZZZ=            -28.7293 XXXY=             14.1163
 XXXZ=             -1.4264 YYYX=             15.5024 YYYZ=              0.9023 ZZZX=              0.6657
 ZZZY=             -1.0524 XXYY=            -20.6597 XXZZ=            -12.2257 YYZZ=            -16.7247
 XXYZ=              0.1501 YYXZ=              0.7607 ZZXY=              4.3550
 N-N= 4.216961703580D+01 E-N=-2.681552409723D+02  KE= 7.929929997875D+01
 Symmetry AG   KE= 4.115135077739D+01
 Symmetry AU   KE= 3.814794920136D+01
   2 Symmetry operations used in ECPInt.
 ECPInt:  NShTT=     253 NPrTT=    1559 LenC2=     254 LenP2D=    1400.
 LDataN:  DoStor=T MaxTD1= 3 Len=   28
 Calling FoFJK, ICntrl=  10002127 FMM=F ISym2X=1 I1Cent= 0 IOpClX= 0 NMat=1 NMatS=1 NMatT=0.
 ***** Axes restored to original set *****
 -------------------------------------------------------------------
 Center     Atomic                   Forces (Hartrees/Bohr)
 Number     Number              X              Y              Z
 -------------------------------------------------------------------
      1        6          -0.001301504    0.002063673   -0.000001093
      2        6           0.001301504   -0.002063673    0.000001093
      3        1          -0.007446161    0.000996201    0.003675714
      4        1          -0.002833526    0.003913421   -0.006823463
      5        1           0.002543955    0.007315762    0.003148974
      6        1          -0.002543955   -0.007315762   -0.003148974
      7        1           0.002833526   -0.003913421    0.006823463
      8        1           0.007446161   -0.000996201   -0.003675714
 -------------------------------------------------------------------
 Cartesian Forces:  Max     0.007446161 RMS     0.004239819

 GradGradGradGradGradGradGradGradGradGradGradGradGradGradGradGradGradGrad
 Berny optimization.
 FormGI is forming the generalized inverse of G from B-inverse, IUseBI=4.
 Internal  Forces:  Max     0.016907063 RMS     0.005121491
 Search for a local minimum.
 Step number   1 out of a maximum of   38
 All quantities printed in internal units (Hartrees-Bohrs-Radians)
 Mixed Optimization -- RFO/linear search
 Second derivative matrix not updated -- first step.
 ITU=  0
     Eigenvalues ---    0.00280   0.05575   0.05575   0.05575   0.05575
     Eigenvalues ---    0.16000   0.16000   0.16000   0.16000   0.16000
     Eigenvalues ---    0.16000   0.28810   0.34549   0.34549   0.34549
     Eigenvalues ---    0.34549   0.34549   0.34549
 RFO step:  Lambda=-2.45837204D-03 EMin= 2.80064107D-03
 Linear search not attempted -- first point.
 Iteration  1 RMS(Cart)=  0.03048886 RMS(Int)=  0.00010204
 Iteration  2 RMS(Cart)=  0.00011491 RMS(Int)=  0.00005516
 Iteration  3 RMS(Cart)=  0.00000001 RMS(Int)=  0.00005516
 ClnCor:  largest displacement from symmetrization is 7.72D-09 for atom     8.
 Variable       Old X    -DE/DX   Delta X   Delta X   Delta X     New X
                                 (Linear)    (Quad)   (Total)
    R1        2.90400   0.01691   0.00000   0.05819   0.05819   2.96219
    R2        2.06413   0.00809   0.00000   0.02324   0.02324   2.08736
    R3        2.06413   0.00808   0.00000   0.02323   0.02323   2.08736
    R4        2.06413   0.00808   0.00000   0.02323   0.02323   2.08737
    R5        2.06413   0.00808   0.00000   0.02323   0.02323   2.08737
    R6        2.06413   0.00808   0.00000   0.02323   0.02323   2.08736
    R7        2.06413   0.00809   0.00000   0.02324   0.02324   2.08736
    A1        1.92692   0.00213   0.00000   0.01313   0.01304   1.93996
    A2        1.92692   0.00213   0.00000   0.01313   0.01304   1.93996
    A3        1.92691   0.00213   0.00000   0.01314   0.01305   1.93997
    A4        1.89407  -0.00221   0.00000  -0.01357  -0.01366   1.88041
    A5        1.89407  -0.00221   0.00000  -0.01357  -0.01366   1.88041
    A6        1.89407  -0.00221   0.00000  -0.01358  -0.01366   1.88041
    A7        1.92691   0.00213   0.00000   0.01314   0.01305   1.93997
    A8        1.92692   0.00213   0.00000   0.01313   0.01304   1.93996
    A9        1.92692   0.00213   0.00000   0.01313   0.01304   1.93996
   A10        1.89407  -0.00221   0.00000  -0.01358  -0.01366   1.88041
   A11        1.89407  -0.00221   0.00000  -0.01357  -0.01366   1.88041
   A12        1.89407  -0.00221   0.00000  -0.01357  -0.01366   1.88041
    D1        1.04720   0.00000   0.00000   0.00000   0.00000   1.04720
    D2       -1.04720   0.00000   0.00000   0.00000   0.00000  -1.04720
    D3        3.14159   0.00000   0.00000   0.00000   0.00000   3.14159
    D4       -1.04720   0.00000   0.00000   0.00000   0.00000  -1.04720
    D5        3.14159   0.00000   0.00000   0.00000   0.00000   3.14159
    D6        1.04720   0.00000   0.00000   0.00000   0.00000   1.04720
    D7        3.14159   0.00000   0.00000   0.00000   0.00000   3.14159
    D8        1.04720   0.00000   0.00000   0.00000   0.00000   1.04720
    D9       -1.04720   0.00000   0.00000   0.00000   0.00000  -1.04720
         Item               Value     Threshold  Converged?
 Maximum Force            0.016907     0.000450     NO 
 RMS     Force            0.005121     0.000300     NO 
 Maximum Displacement     0.058702     0.001800     NO 
 RMS     Displacement     0.030546     0.001200     NO 
 Predicted change in Energy=-1.239952D-03
 GradGradGradGradGradGradGradGradGradGradGradGradGradGradGradGradGradGrad

                          Input orientation:                          
 ---------------------------------------------------------------------
 Center     Atomic      Atomic             Coordinates (Angstroms)
 Number     Number       Type             X           Y           Z
 ---------------------------------------------------------------------
      1          6           0       -1.778078    1.618092    0.000000
      2          6           0       -0.940102    0.293358    0.000000
      3          1           0       -2.725071    1.490687    0.554151
      4          1           0       -2.029771    1.930508   -1.029153
      5          1           0       -1.218617    2.443614    0.475004
      6          1           0       -1.499563   -0.532164   -0.475004
      7          1           0       -0.688409   -0.019058    1.029153
      8          1           0        0.006891    0.420763   -0.554151
 ---------------------------------------------------------------------
                    Distance matrix (angstroms):
                    1          2          3          4          5
     1  C    0.000000
     2  C    1.567523   0.000000
     3  H    1.104586   2.219638   0.000000
     4  H    1.104586   2.219638   1.784303   0.000000
     5  H    1.104586   2.219640   1.784303   1.784303   0.000000
     6  H    2.219640   1.104586   2.579332   2.579332   3.136351
     7  H    2.219638   1.104586   2.579330   3.136349   2.579332
     8  H    2.219638   1.104586   3.136348   2.579330   2.579332
                    6          7          8
     6  H    0.000000
     7  H    1.784303   0.000000
     8  H    1.784303   1.784303   0.000000
 Stoichiometry    C2H6
 Framework group  CI[X(C2H6)]
 Deg. of freedom     9
 Full point group                 CI      NOp   2
 Largest Abelian subgroup         CI      NOp   2
 Largest concise Abelian subgroup CI      NOp   2
                         Standard orientation:                         
 ---------------------------------------------------------------------
 Center     Atomic      Atomic             Coordinates (Angstroms)
 Number     Number       Type             X           Y           Z
 ---------------------------------------------------------------------
      1          6           0       -0.418988    0.662367    0.000000
      2          6           0        0.418988   -0.662367    0.000000
      3          1           0       -1.365981    0.534962    0.554151
      4          1           0       -0.670681    0.974783   -1.029153
      5          1           0        0.140473    1.487889    0.475004
      6          1           0       -0.140473   -1.487889   -0.475004
      7          1           0        0.670681   -0.974783    1.029153
      8          1           0        1.365981   -0.534962   -0.554151
 ---------------------------------------------------------------------
 Rotational constants (GHZ):     78.7526047     19.1398089     19.1398083
 Standard basis: LANL2DZ (5D, 7F)
 There are    15 symmetry adapted cartesian basis functions of AG  symmetry.
 There are    15 symmetry adapted cartesian basis functions of AU  symmetry.
 There are    15 symmetry adapted basis functions of AG  symmetry.
 There are    15 symmetry adapted basis functions of AU  symmetry.
    30 basis functions,    74 primitive gaussians,    30 cartesian basis functions
     9 alpha electrons        9 beta electrons
       nuclear repulsion energy        41.4990290844 Hartrees.
 NAtoms=    8 NActive=    8 NUniq=    4 SFac= 4.00D+00 NAtFMM=   60 NAOKFM=F Big=F
 Integral buffers will be    131072 words long.
 Raffenetti 1 integral format.
 Two-electron integral symmetry is turned on.
 One-electron integrals computed using PRISM.
   2 Symmetry operations used in ECPInt.
 ECPInt:  NShTT=     253 NPrTT=    1559 LenC2=     254 LenP2D=    1400.
 LDataN:  DoStor=T MaxTD1= 2 Len=   12
 NBasis=    30 RedAO= T EigKep=  6.91D-03  NBF=    15    15
 NBsUse=    30 1.00D-06 EigRej= -1.00D+00 NBFU=    15    15
 Initial guess from the checkpoint file:  "/scr/Gau-24939.chk"
 B after Tr=     0.000000    0.000000    0.000000
         Rot=    1.000000    0.000000    0.000000    0.000001 Ang=   0.00 deg.
 Initial guess orbital symmetries:
       Occupied  (AG) (AU) (AG) (AU) (AU) (AU) (AG) (AG) (AG)
       Virtual   (AG) (AG) (AG) (AG) (AG) (AG) (AG) (AG) (AG) (AG)
                 (AU) (AU) (AU) (AU) (AU) (AU) (AU) (AU) (AU) (AU)
                 (AU)
 ExpMin= 1.15D-01 ExpMax= 4.23D+03 ExpMxC= 1.46D+02 IAcc=1 IRadAn=         1 AccDes= 0.00D+00
 Harris functional with IExCor=  205 and IRadAn=       1 diagonalized for initial guess.
 HarFok:  IExCor=  205 AccDes= 0.00D+00 IRadAn=         1 IDoV= 1 UseB2=F ITyADJ=14
 ICtDFT=  3500011 ScaDFX=  1.000000  1.000000  1.000000  1.000000
 FoFCou: FMM=F IPFlag=           0 FMFlag=      100000 FMFlg1=           0
         NFxFlg=           0 DoJE=T BraDBF=F KetDBF=T FulRan=T
         wScrn=  0.000000 ICntrl=     500 IOpCl=  0 I1Cent=   200000004 NGrid=           0
         NMat0=    1 NMatS0=      1 NMatT0=    0 NMatD0=    1 NMtDS0=    0 NMtDT0=    0
 Petite list used in FoFCou.
 Keep R1 ints in memory in symmetry-blocked form, NReq=955405.
 Requested convergence on RMS density matrix=1.00D-08 within 128 cycles.
 Requested convergence on MAX density matrix=1.00D-06.
 Requested convergence on             energy=1.00D-06.
 No special actions if energy rises.
 SCF Done:  E(RHF) =  -79.2039776597     A.U. after    7 cycles
            NFock=  7  Conv=0.80D-08     -V/T= 2.0008
 ExpMin= 1.15D-01 ExpMax= 4.23D+03 ExpMxC= 1.46D+02 IAcc=3 IRadAn=         5 AccDes= 0.00D+00
 HarFok:  IExCor=  205 AccDes= 0.00D+00 IRadAn=         5 IDoV=-2 UseB2=F ITyADJ=14
 ICtDFT= 12500011 ScaDFX=  1.000000  1.000000  1.000000  1.000000
 Range of M.O.s used for correlation:     3    30
 NBasis=    30 NAE=     9 NBE=     9 NFC=     2 NFV=     0
 NROrb=     28 NOA=     7 NOB=     7 NVA=    21 NVB=    21
 Fully direct method using O(ONN) memory.
 JobTyp=1 Pass  1:  I=   3 to   9 NPSUse=  3 ParTrn=F ParDer=T DoDerP=T.
 Spin components of T(2) and E(2):
     alpha-alpha T2 =       0.7000491548D-02 E2=     -0.1592513080D-01
     alpha-beta  T2 =       0.5860833453D-01 E2=     -0.1470280018D+00
     beta-beta   T2 =       0.7000491548D-02 E2=     -0.1592513080D-01
 ANorm=    0.1035668537D+01
 E2 =    -0.1788782634D+00 EUMP2 =    -0.79382855923123D+02
          IDoAtm=11111111
          Differentiating once with respect to electric field.
                with respect to dipole field.
          Differentiating once with respect to nuclear coordinates.
 Keep R1 ints in memory in symmetry-blocked form, NReq=943610.
          There are     1 degrees of freedom in the 1st order CPHF.  IDoFFX=0 NUNeed=     1.
 LinEq1:  Iter=  0 NonCon=     1 RMS=2.92D-03 Max=1.70D-02 NDo=     1
 AX will form     1 AO Fock derivatives at one time.
 LinEq1:  Iter=  1 NonCon=     1 RMS=2.67D-04 Max=1.90D-03 NDo=     1
 LinEq1:  Iter=  2 NonCon=     1 RMS=8.95D-05 Max=4.54D-04 NDo=     1
 LinEq1:  Iter=  3 NonCon=     1 RMS=9.93D-06 Max=6.03D-05 NDo=     1
 LinEq1:  Iter=  4 NonCon=     1 RMS=6.73D-07 Max=3.93D-06 NDo=     1
 LinEq1:  Iter=  5 NonCon=     1 RMS=4.77D-08 Max=2.69D-07 NDo=     1
 LinEq1:  Iter=  6 NonCon=     1 RMS=4.52D-09 Max=2.80D-08 NDo=     1
 LinEq1:  Iter=  7 NonCon=     1 RMS=4.26D-10 Max=2.51D-09 NDo=     1
 LinEq1:  Iter=  8 NonCon=     0 RMS=2.67D-11 Max=1.93D-10 NDo=     1
 Linear equations converged to 1.000D-10 1.000D-09 after     8 iterations.
 End of Minotr F.D. properties file   721 does not exist.
 End of Minotr F.D. properties file   722 does not exist.
 End of Minotr F.D. properties file   788 does not exist.
   2 Symmetry operations used in ECPInt.
 ECPInt:  NShTT=     253 NPrTT=    1559 LenC2=     254 LenP2D=    1400.
 LDataN:  DoStor=T MaxTD1= 3 Len=   28
 Calling FoFJK, ICntrl=  10002127 FMM=F ISym2X=1 I1Cent= 0 IOpClX= 0 NMat=1 NMatS=1 NMatT=0.
 ***** Axes restored to original set *****
 -------------------------------------------------------------------
 Center     Atomic                   Forces (Hartrees/Bohr)
 Number     Number              X              Y              Z
 -------------------------------------------------------------------
      1        6           0.001010425   -0.001597575   -0.000000069
      2        6          -0.001010425    0.001597575    0.000000069
      3        1           0.000057503   -0.000714490    0.000212731
      4        1           0.000324407   -0.000545676   -0.000395076
      5        1           0.000635830   -0.000348925    0.000182315
      6        1          -0.000635830    0.000348925   -0.000182315
      7        1          -0.000324407    0.000545676    0.000395076
      8        1          -0.000057503    0.000714490   -0.000212731
 -------------------------------------------------------------------
 Cartesian Forces:  Max     0.001597575 RMS     0.000661477

 GradGradGradGradGradGradGradGradGradGradGradGradGradGradGradGradGradGrad
 Berny optimization.
 Using GEDIIS/GDIIS optimizer.
 FormGI is forming the generalized inverse of G from B-inverse, IUseBI=4.
 Internal  Forces:  Max     0.003794227 RMS     0.000869240
 Search for a local minimum.
 Step number   2 out of a maximum of   38
 All quantities printed in internal units (Hartrees-Bohrs-Radians)
 Mixed Optimization -- En-DIIS/RFO-DIIS
 Update second derivatives using D2CorX and points    1    2
 DE= -1.04D-03 DEPred=-1.24D-03 R= 8.42D-01
 TightC=F SS=  1.41D+00  RLast= 9.36D-02 DXNew= 5.0454D-01 2.8086D-01
 Trust test= 8.42D-01 RLast= 9.36D-02 DXMaxT set to 3.00D-01
 ITU=  1  0
 Use linear search instead of GDIIS.
     Eigenvalues ---    0.00280   0.05438   0.05438   0.05438   0.05438
     Eigenvalues ---    0.16000   0.16000   0.16000   0.16000   0.16000
     Eigenvalues ---    0.16984   0.31543   0.33900   0.34549   0.34549
     Eigenvalues ---    0.34549   0.34549   0.34549
 RFO step:  Lambda=-3.91837349D-05 EMin= 2.80064107D-03
 Quartic linear search produced a step of -0.12111.
 Iteration  1 RMS(Cart)=  0.00631631 RMS(Int)=  0.00000948
 Iteration  2 RMS(Cart)=  0.00001108 RMS(Int)=  0.00000177
 Iteration  3 RMS(Cart)=  0.00000000 RMS(Int)=  0.00000177
 ClnCor:  largest displacement from symmetrization is 1.85D-10 for atom     8.
 Variable       Old X    -DE/DX   Delta X   Delta X   Delta X     New X
                                 (Linear)    (Quad)   (Total)
    R1        2.96219  -0.00379  -0.00705  -0.00390  -0.01095   2.95124
    R2        2.08736   0.00014  -0.00281   0.00344   0.00063   2.08799
    R3        2.08736   0.00014  -0.00281   0.00344   0.00063   2.08799
    R4        2.08737   0.00014  -0.00281   0.00344   0.00063   2.08799
    R5        2.08737   0.00014  -0.00281   0.00344   0.00063   2.08799
    R6        2.08736   0.00014  -0.00281   0.00344   0.00063   2.08799
    R7        2.08736   0.00014  -0.00281   0.00344   0.00063   2.08799
    A1        1.93996  -0.00072  -0.00158  -0.00231  -0.00389   1.93608
    A2        1.93996  -0.00072  -0.00158  -0.00231  -0.00389   1.93608
    A3        1.93997  -0.00072  -0.00158  -0.00231  -0.00389   1.93608
    A4        1.88041   0.00077   0.00165   0.00245   0.00411   1.88452
    A5        1.88041   0.00077   0.00165   0.00245   0.00411   1.88452
    A6        1.88041   0.00077   0.00165   0.00245   0.00411   1.88452
    A7        1.93997  -0.00072  -0.00158  -0.00231  -0.00389   1.93608
    A8        1.93996  -0.00072  -0.00158  -0.00231  -0.00389   1.93608
    A9        1.93996  -0.00072  -0.00158  -0.00231  -0.00389   1.93608
   A10        1.88041   0.00077   0.00165   0.00245   0.00411   1.88452
   A11        1.88041   0.00077   0.00165   0.00245   0.00411   1.88452
   A12        1.88041   0.00077   0.00165   0.00245   0.00411   1.88452
    D1        1.04720   0.00000   0.00000   0.00000   0.00000   1.04720
    D2       -1.04720   0.00000   0.00000   0.00000   0.00000  -1.04720
    D3        3.14159   0.00000   0.00000   0.00000   0.00000   3.14159
    D4       -1.04720   0.00000   0.00000   0.00000   0.00000  -1.04720
    D5        3.14159   0.00000   0.00000   0.00000   0.00000   3.14159
    D6        1.04720   0.00000   0.00000   0.00000   0.00000   1.04720
    D7        3.14159   0.00000   0.00000   0.00000   0.00000   3.14159
    D8        1.04720   0.00000   0.00000   0.00000   0.00000   1.04720
    D9       -1.04720   0.00000   0.00000   0.00000   0.00000  -1.04720
         Item               Value     Threshold  Converged?
 Maximum Force            0.003794     0.000450     NO 
 RMS     Force            0.000869     0.000300     NO 
 Maximum Displacement     0.012415     0.001800     NO 
 RMS     Displacement     0.006325     0.001200     NO 
 Predicted change in Energy=-3.779499D-05
 GradGradGradGradGradGradGradGradGradGradGradGradGradGradGradGradGradGrad

                          Input orientation:                          
 ---------------------------------------------------------------------
 Center     Atomic      Atomic             Coordinates (Angstroms)
 Number     Number       Type             X           Y           Z
 ---------------------------------------------------------------------
      1          6           0       -1.776530    1.615645    0.000000
      2          6           0       -0.941650    0.295805    0.000000
      3          1           0       -2.722762    1.484117    0.555147
      4          1           0       -2.026212    1.924729   -1.031003
      5          1           0       -1.213600    2.438756    0.475857
      6          1           0       -1.504580   -0.527306   -0.475857
      7          1           0       -0.691968   -0.013279    1.031003
      8          1           0        0.004582    0.427333   -0.555147
 ---------------------------------------------------------------------
                    Distance matrix (angstroms):
                    1          2          3          4          5
     1  C    0.000000
     2  C    1.561730   0.000000
     3  H    1.104917   2.211930   0.000000
     4  H    1.104917   2.211930   1.787510   0.000000
     5  H    1.104917   2.211930   1.787510   1.787510   0.000000
     6  H    2.211930   1.104917   2.567637   2.567637   3.128570
     7  H    2.211930   1.104917   2.567637   3.128571   2.567637
     8  H    2.211930   1.104917   3.128571   2.567637   2.567637
                    6          7          8
     6  H    0.000000
     7  H    1.787510   0.000000
     8  H    1.787510   1.787510   0.000000
 Stoichiometry    C2H6
 Framework group  CI[X(C2H6)]
 Deg. of freedom     9
 Full point group                 CI      NOp   2
 Largest Abelian subgroup         CI      NOp   2
 Largest concise Abelian subgroup CI      NOp   2
                         Standard orientation:                         
 ---------------------------------------------------------------------
 Center     Atomic      Atomic             Coordinates (Angstroms)
 Number     Number       Type             X           Y           Z
 ---------------------------------------------------------------------
      1          6           0       -0.417440    0.659920    0.000000
      2          6           0        0.417440   -0.659920    0.000000
      3          1           0       -1.363672    0.528392    0.555147
      4          1           0       -0.667122    0.969004   -1.031003
      5          1           0        0.145490    1.483031    0.475857
      6          1           0       -0.145490   -1.483031   -0.475857
      7          1           0        0.667122   -0.969004    1.031003
      8          1           0        1.363672   -0.528392   -0.555147
 ---------------------------------------------------------------------
 Rotational constants (GHZ):     78.4702548     19.2814526     19.2814521
 Standard basis: LANL2DZ (5D, 7F)
 There are    15 symmetry adapted cartesian basis functions of AG  symmetry.
 There are    15 symmetry adapted cartesian basis functions of AU  symmetry.
 There are    15 symmetry adapted basis functions of AG  symmetry.
 There are    15 symmetry adapted basis functions of AU  symmetry.
    30 basis functions,    74 primitive gaussians,    30 cartesian basis functions
     9 alpha electrons        9 beta electrons
       nuclear repulsion energy        41.5725128756 Hartrees.
 NAtoms=    8 NActive=    8 NUniq=    4 SFac= 4.00D+00 NAtFMM=   60 NAOKFM=F Big=F
 Integral buffers will be    131072 words long.
 Raffenetti 1 integral format.
 Two-electron integral symmetry is turned on.
 One-electron integrals computed using PRISM.
   2 Symmetry operations used in ECPInt.
 ECPInt:  NShTT=     253 NPrTT=    1559 LenC2=     254 LenP2D=    1400.
 LDataN:  DoStor=T MaxTD1= 2 Len=   12
 NBasis=    30 RedAO= T EigKep=  6.87D-03  NBF=    15    15
 NBsUse=    30 1.00D-06 EigRej= -1.00D+00 NBFU=    15    15
 Initial guess from the checkpoint file:  "/scr/Gau-24939.chk"
 B after Tr=     0.000000    0.000000    0.000000
         Rot=    1.000000    0.000000    0.000000    0.000000 Ang=   0.00 deg.
 Initial guess orbital symmetries:
       Occupied  (AG) (AU) (AG) (AU) (AU) (AU) (AG) (AG) (AG)
       Virtual   (AG) (AG) (AG) (AG) (AG) (AG) (AG) (AG) (AG) (AG)
                 (AU) (AU) (AU) (AU) (AU) (AU) (AU) (AU) (AU) (AU)
                 (AU)
 Keep R1 ints in memory in symmetry-blocked form, NReq=955405.
 Requested convergence on RMS density matrix=1.00D-08 within 128 cycles.
 Requested convergence on MAX density matrix=1.00D-06.
 Requested convergence on             energy=1.00D-06.
 No special actions if energy rises.
 SCF Done:  E(RHF) =  -79.2041199918     A.U. after    7 cycles
            NFock=  7  Conv=0.14D-08     -V/T= 2.0007
 ExpMin= 1.15D-01 ExpMax= 4.23D+03 ExpMxC= 1.46D+02 IAcc=3 IRadAn=         5 AccDes= 0.00D+00
 HarFok:  IExCor=  205 AccDes= 0.00D+00 IRadAn=         5 IDoV=-2 UseB2=F ITyADJ=14
 ICtDFT= 12500011 ScaDFX=  1.000000  1.000000  1.000000  1.000000
 Range of M.O.s used for correlation:     3    30
 NBasis=    30 NAE=     9 NBE=     9 NFC=     2 NFV=     0
 NROrb=     28 NOA=     7 NOB=     7 NVA=    21 NVB=    21
 Fully direct method using O(ONN) memory.
 JobTyp=1 Pass  1:  I=   3 to   9 NPSUse=  3 ParTrn=F ParDer=T DoDerP=T.
 Spin components of T(2) and E(2):
     alpha-alpha T2 =       0.6989729289D-02 E2=     -0.1591568506D-01
     alpha-beta  T2 =       0.5852681831D-01 E2=     -0.1469407604D+00
     beta-beta   T2 =       0.6989729289D-02 E2=     -0.1591568506D-01
 ANorm=    0.1035618789D+01
 E2 =    -0.1787721305D+00 EUMP2 =    -0.79382892122246D+02
          IDoAtm=11111111
          Differentiating once with respect to electric field.
                with respect to dipole field.
          Differentiating once with respect to nuclear coordinates.
 Keep R1 ints in memory in symmetry-blocked form, NReq=943648.
          There are     1 degrees of freedom in the 1st order CPHF.  IDoFFX=0 NUNeed=     1.
 LinEq1:  Iter=  0 NonCon=     1 RMS=2.92D-03 Max=1.58D-02 NDo=     1
 AX will form     1 AO Fock derivatives at one time.
 LinEq1:  Iter=  1 NonCon=     1 RMS=2.65D-04 Max=1.86D-03 NDo=     1
 LinEq1:  Iter=  2 NonCon=     1 RMS=8.59D-05 Max=4.82D-04 NDo=     1
 LinEq1:  Iter=  3 NonCon=     1 RMS=9.97D-06 Max=6.14D-05 NDo=     1
 LinEq1:  Iter=  4 NonCon=     1 RMS=6.73D-07 Max=3.98D-06 NDo=     1
 LinEq1:  Iter=  5 NonCon=     1 RMS=4.79D-08 Max=2.73D-07 NDo=     1
 LinEq1:  Iter=  6 NonCon=     1 RMS=4.58D-09 Max=2.83D-08 NDo=     1
 LinEq1:  Iter=  7 NonCon=     1 RMS=4.25D-10 Max=2.51D-09 NDo=     1
 LinEq1:  Iter=  8 NonCon=     0 RMS=2.68D-11 Max=1.93D-10 NDo=     1
 Linear equations converged to 1.000D-10 1.000D-09 after     8 iterations.
 End of Minotr F.D. properties file   721 does not exist.
 End of Minotr F.D. properties file   722 does not exist.
 End of Minotr F.D. properties file   788 does not exist.
   2 Symmetry operations used in ECPInt.
 ECPInt:  NShTT=     253 NPrTT=    1559 LenC2=     254 LenP2D=    1400.
 LDataN:  DoStor=T MaxTD1= 3 Len=   28
 Calling FoFJK, ICntrl=  10002127 FMM=F ISym2X=1 I1Cent= 0 IOpClX= 0 NMat=1 NMatS=1 NMatT=0.
 ***** Axes restored to original set *****
 -------------------------------------------------------------------
 Center     Atomic                   Forces (Hartrees/Bohr)
 Number     Number              X              Y              Z
 -------------------------------------------------------------------
      1        6          -0.000047648    0.000075324    0.000000025
      2        6           0.000047648   -0.000075324   -0.000000025
      3        1           0.000111638    0.000088593   -0.000090434
      4        1          -0.000001832    0.000016820    0.000167913
      5        1          -0.000134168   -0.000066873   -0.000077491
      6        1           0.000134168    0.000066873    0.000077491
      7        1           0.000001832   -0.000016820   -0.000167913
      8        1          -0.000111638   -0.000088593    0.000090434
 -------------------------------------------------------------------
 Cartesian Forces:  Max     0.000167913 RMS     0.000088220

 GradGradGradGradGradGradGradGradGradGradGradGradGradGradGradGradGradGrad
 Berny optimization.
 Using GEDIIS/GDIIS optimizer.
 FormGI is forming the generalized inverse of G from B-inverse, IUseBI=4.
 Internal  Forces:  Max     0.000151588 RMS     0.000089521
 Search for a local minimum.
 Step number   3 out of a maximum of   38
 All quantities printed in internal units (Hartrees-Bohrs-Radians)
 Mixed Optimization -- En-DIIS/RFO-DIIS
 Swapping is turned off.
 Update second derivatives using D2CorX and points    1    2    3
 DE= -3.62D-05 DEPred=-3.78D-05 R= 9.58D-01
 TightC=F SS=  1.41D+00  RLast= 1.77D-02 DXNew= 5.0454D-01 5.3167D-02
 Trust test= 9.58D-01 RLast= 1.77D-02 DXMaxT set to 3.00D-01
 ITU=  1  1  0
     Eigenvalues ---    0.00280   0.05479   0.05479   0.05479   0.05479
     Eigenvalues ---    0.16000   0.16000   0.16000   0.16000   0.16000
     Eigenvalues ---    0.17674   0.31946   0.34360   0.34549   0.34549
     Eigenvalues ---    0.34549   0.34549   0.34549
 En-DIIS/RFO-DIIS IScMMF=        0 using points:     3    2
 RFO step:  Lambda=-4.16333183D-07.
 DidBck=F Rises=F RFO-DIIS coefs:    0.93207    0.06793
 Iteration  1 RMS(Cart)=  0.00046487 RMS(Int)=  0.00000030
 Iteration  2 RMS(Cart)=  0.00000014 RMS(Int)=  0.00000028
 ClnCor:  largest displacement from symmetrization is 8.79D-09 for atom     7.
 Variable       Old X    -DE/DX   Delta X   Delta X   Delta X     New X
                                 (Linear)    (Quad)   (Total)
    R1        2.95124   0.00013   0.00074  -0.00048   0.00027   2.95151
    R2        2.08799  -0.00015  -0.00004  -0.00040  -0.00044   2.08755
    R3        2.08799  -0.00015  -0.00004  -0.00040  -0.00044   2.08755
    R4        2.08799  -0.00015  -0.00004  -0.00040  -0.00044   2.08755
    R5        2.08799  -0.00015  -0.00004  -0.00040  -0.00044   2.08755
    R6        2.08799  -0.00015  -0.00004  -0.00040  -0.00044   2.08755
    R7        2.08799  -0.00015  -0.00004  -0.00040  -0.00044   2.08755
    A1        1.93608   0.00007   0.00026   0.00012   0.00038   1.93646
    A2        1.93608   0.00007   0.00026   0.00012   0.00038   1.93646
    A3        1.93608   0.00007   0.00026   0.00012   0.00038   1.93646
    A4        1.88452  -0.00008  -0.00028  -0.00012  -0.00040   1.88412
    A5        1.88452  -0.00008  -0.00028  -0.00012  -0.00040   1.88412
    A6        1.88452  -0.00008  -0.00028  -0.00012  -0.00040   1.88412
    A7        1.93608   0.00007   0.00026   0.00012   0.00038   1.93646
    A8        1.93608   0.00007   0.00026   0.00012   0.00038   1.93646
    A9        1.93608   0.00007   0.00026   0.00012   0.00038   1.93646
   A10        1.88452  -0.00008  -0.00028  -0.00012  -0.00040   1.88412
   A11        1.88452  -0.00008  -0.00028  -0.00012  -0.00040   1.88412
   A12        1.88452  -0.00008  -0.00028  -0.00012  -0.00040   1.88412
    D1        1.04720   0.00000   0.00000   0.00000   0.00000   1.04720
    D2       -1.04720   0.00000   0.00000   0.00000   0.00000  -1.04720
    D3        3.14159   0.00000   0.00000   0.00000   0.00000   3.14159
    D4       -1.04720   0.00000   0.00000   0.00000   0.00000  -1.04720
    D5        3.14159   0.00000   0.00000   0.00000   0.00000   3.14159
    D6        1.04720   0.00000   0.00000   0.00000   0.00000   1.04720
    D7        3.14159   0.00000   0.00000   0.00000   0.00000   3.14159
    D8        1.04720   0.00000   0.00000   0.00000   0.00000   1.04720
    D9       -1.04720   0.00000   0.00000   0.00000   0.00000  -1.04720
         Item               Value     Threshold  Converged?
 Maximum Force            0.000152     0.000450     YES
 RMS     Force            0.000090     0.000300     YES
 Maximum Displacement     0.000922     0.001800     YES
 RMS     Displacement     0.000465     0.001200     YES
 Predicted change in Energy=-3.949077D-07
 Optimization completed.
    -- Stationary point found.
                           ----------------------------
                           !   Optimized Parameters   !
                           ! (Angstroms and Degrees)  !
 --------------------------                            --------------------------
 ! Name  Definition              Value          Derivative Info.                !
 --------------------------------------------------------------------------------
 ! R1    R(1,2)                  1.5617         -DE/DX =    0.0001              !
 ! R2    R(1,3)                  1.1049         -DE/DX =   -0.0002              !
 ! R3    R(1,4)                  1.1049         -DE/DX =   -0.0002              !
 ! R4    R(1,5)                  1.1049         -DE/DX =   -0.0002              !
 ! R5    R(2,6)                  1.1049         -DE/DX =   -0.0002              !
 ! R6    R(2,7)                  1.1049         -DE/DX =   -0.0002              !
 ! R7    R(2,8)                  1.1049         -DE/DX =   -0.0002              !
 ! A1    A(2,1,3)              110.929          -DE/DX =    0.0001              !
 ! A2    A(2,1,4)              110.929          -DE/DX =    0.0001              !
 ! A3    A(2,1,5)              110.929          -DE/DX =    0.0001              !
 ! A4    A(3,1,4)              107.975          -DE/DX =   -0.0001              !
 ! A5    A(3,1,5)              107.975          -DE/DX =   -0.0001              !
 ! A6    A(4,1,5)              107.975          -DE/DX =   -0.0001              !
 ! A7    A(1,2,6)              110.929          -DE/DX =    0.0001              !
 ! A8    A(1,2,7)              110.929          -DE/DX =    0.0001              !
 ! A9    A(1,2,8)              110.929          -DE/DX =    0.0001              !
 ! A10   A(6,2,7)              107.975          -DE/DX =   -0.0001              !
 ! A11   A(6,2,8)              107.975          -DE/DX =   -0.0001              !
 ! A12   A(7,2,8)              107.975          -DE/DX =   -0.0001              !
 ! D1    D(3,1,2,6)             60.0            -DE/DX =    0.0                 !
 ! D2    D(3,1,2,7)            -60.0            -DE/DX =    0.0                 !
 ! D3    D(3,1,2,8)            180.0            -DE/DX =    0.0                 !
 ! D4    D(4,1,2,6)            -60.0            -DE/DX =    0.0                 !
 ! D5    D(4,1,2,7)            180.0            -DE/DX =    0.0                 !
 ! D6    D(4,1,2,8)             60.0            -DE/DX =    0.0                 !
 ! D7    D(5,1,2,6)            180.0            -DE/DX =    0.0                 !
 ! D8    D(5,1,2,7)             60.0            -DE/DX =    0.0                 !
 ! D9    D(5,1,2,8)            -60.0            -DE/DX =    0.0                 !
 --------------------------------------------------------------------------------
 GradGradGradGradGradGradGradGradGradGradGradGradGradGradGradGradGradGrad

                          Input orientation:                          
 ---------------------------------------------------------------------
 Center     Atomic      Atomic             Coordinates (Angstroms)
 Number     Number       Type             X           Y           Z
 ---------------------------------------------------------------------
      1          6           0       -1.776530    1.615645    0.000000
      2          6           0       -0.941650    0.295805    0.000000
      3          1           0       -2.722762    1.484117    0.555147
      4          1           0       -2.026212    1.924729   -1.031003
      5          1           0       -1.213600    2.438756    0.475857
      6          1           0       -1.504580   -0.527306   -0.475857
      7          1           0       -0.691968   -0.013279    1.031003
      8          1           0        0.004582    0.427333   -0.555147
 ---------------------------------------------------------------------
                    Distance matrix (angstroms):
                    1          2          3          4          5
     1  C    0.000000
     2  C    1.561730   0.000000
     3  H    1.104917   2.211930   0.000000
     4  H    1.104917   2.211930   1.787510   0.000000
     5  H    1.104917   2.211930   1.787510   1.787510   0.000000
     6  H    2.211930   1.104917   2.567637   2.567637   3.128570
     7  H    2.211930   1.104917   2.567637   3.128571   2.567637
     8  H    2.211930   1.104917   3.128571   2.567637   2.567637
                    6          7          8
     6  H    0.000000
     7  H    1.787510   0.000000
     8  H    1.787510   1.787510   0.000000
 Stoichiometry    C2H6
 Framework group  CI[X(C2H6)]
 Deg. of freedom     9
 Full point group                 CI      NOp   2
 Largest Abelian subgroup         CI      NOp   2
 Largest concise Abelian subgroup CI      NOp   2
                         Standard orientation:                         
 ---------------------------------------------------------------------
 Center     Atomic      Atomic             Coordinates (Angstroms)
 Number     Number       Type             X           Y           Z
 ---------------------------------------------------------------------
      1          6           0       -0.417440    0.659920    0.000000
      2          6           0        0.417440   -0.659920    0.000000
      3          1           0       -1.363672    0.528392    0.555147
      4          1           0       -0.667122    0.969004   -1.031003
      5          1           0        0.145490    1.483031    0.475857
      6          1           0       -0.145490   -1.483031   -0.475857
      7          1           0        0.667122   -0.969004    1.031003
      8          1           0        1.363672   -0.528392   -0.555147
 ---------------------------------------------------------------------
 Rotational constants (GHZ):     78.4702548     19.2814526     19.2814521

 **********************************************************************

            Population analysis using the SCF density.

 **********************************************************************

 Orbital symmetries:
       Occupied  (AG) (AU) (AG) (AU) (AU) (AU) (AG) (AG) (AG)
       Virtual   (AU) (AG) (AG) (AG) (AU) (AU) (AU) (AG) (AU) (AU)
                 (AG) (AG) (AU) (AG) (AU) (AG) (AU) (AU) (AG) (AG)
                 (AU)
 The electronic state is 1-AG.
 Alpha  occ. eigenvalues --  -11.21964 -11.21912  -1.00907  -0.83992  -0.58983
 Alpha  occ. eigenvalues --   -0.58983  -0.49822  -0.48296  -0.48296
 Alpha virt. eigenvalues --    0.24933   0.27160   0.32141   0.32141   0.36070
 Alpha virt. eigenvalues --    0.36070   0.39083   0.45639   0.46872   0.46872
 Alpha virt. eigenvalues --    0.51903   0.51903   0.72599   1.15755   1.28436
 Alpha virt. eigenvalues --    1.33902   1.38051   1.38051   1.41045   1.41045
 Alpha virt. eigenvalues --    1.61186
          Condensed to atoms (all electrons):
               1          2          3          4          5          6
     1  C    5.215544   0.276162   0.381216   0.381216   0.381216  -0.044871
     2  C    0.276162   5.215544  -0.044871  -0.044871  -0.044871   0.381216
     3  H    0.381216  -0.044871   0.548295  -0.025508  -0.025509  -0.001744
     4  H    0.381216  -0.044871  -0.025508   0.548295  -0.025509  -0.001744
     5  H    0.381216  -0.044871  -0.025509  -0.025509   0.548295   0.002952
     6  H   -0.044871   0.381216  -0.001744  -0.001744   0.002952   0.548295
     7  H   -0.044871   0.381216  -0.001744   0.002952  -0.001744  -0.025509
     8  H   -0.044871   0.381216   0.002952  -0.001744  -0.001744  -0.025509
               7          8
     1  C   -0.044871  -0.044871
     2  C    0.381216   0.381216
     3  H   -0.001744   0.002952
     4  H    0.002952  -0.001744
     5  H   -0.001744  -0.001744
     6  H   -0.025509  -0.025509
     7  H    0.548295  -0.025508
     8  H   -0.025508   0.548295
 Mulliken charges:
               1
     1  C   -0.500739
     2  C   -0.500739
     3  H    0.166913
     4  H    0.166913
     5  H    0.166913
     6  H    0.166913
     7  H    0.166913
     8  H    0.166913
 Sum of Mulliken charges =   0.00000
 Mulliken charges with hydrogens summed into heavy atoms:
               1
     1  C    0.000000
     2  C    0.000000
 Electronic spatial extent (au):  <R**2>=            112.5312
 Charge=              0.0000 electrons
 Dipole moment (field-independent basis, Debye):
    X=              0.0000    Y=              0.0000    Z=              0.0000  Tot=              0.0000
 Quadrupole moment (field-independent basis, Debye-Ang):
   XX=            -15.2023   YY=            -15.4608   ZZ=            -15.0298
   XY=              0.2726   XZ=              0.0000   YZ=              0.0000
 Traceless Quadrupole moment (field-independent basis, Debye-Ang):
   XX=              0.0287   YY=             -0.2298   ZZ=              0.2011
   XY=              0.2726   XZ=              0.0000   YZ=              0.0000
 Octapole moment (field-independent basis, Debye-Ang**2):
  XXX=              0.0000  YYY=              0.0000  ZZZ=              0.0000  XYY=              0.0000
  XXY=              0.0000  XXZ=              0.0000  XZZ=              0.0000  YZZ=              0.0000
  YYZ=              0.0000  XYZ=              0.0000
 Hexadecapole moment (field-independent basis, Debye-Ang**3):
 XXXX=            -47.5724 YYYY=            -76.4134 ZZZZ=            -29.3506 XXXY=             14.6656
 XXXZ=             -1.5161 YYYX=             16.1611 YYYZ=              0.9590 ZZZX=              0.7076
 ZZZY=             -1.1186 XXYY=            -21.3267 XXZZ=            -12.5249 YYZZ=            -17.1951
 XXYZ=              0.1596 YYXZ=              0.8085 ZZXY=              4.5110
 N-N= 4.157251287559D+01 E-N=-2.668393849160D+02  KE= 7.914922504489D+01
 Symmetry AG   KE= 4.104565852822D+01
 Symmetry AU   KE= 3.810356651667D+01
 1\1\GINC-N0292\FOpt\RMP2-FC\LANL2DZ\C2H6\TAIYUPAN\23-Feb-2017\0\\#n MP
 2/LANL2DZ Opt\\CH3_MP2/6-31G(d,p)\\0,1\C,-1.7765302127,1.6156446755,0.
 0000001216\C,-0.9416497873,0.2958053245,-0.0000001216\H,-2.7227624237,
 1.4841171471,0.5551466027\H,-2.0262122992,1.9247287337,-1.0310034241\H
 ,-1.2136002846,2.4387558759,0.4758574789\H,-1.5045797154,-0.5273058759
 ,-0.4758574789\H,-0.6919677008,-0.0132787337,1.0310034241\H,0.00458242
 37,0.4273328529,-0.5551466027\\Version=ES64L-G09RevE.01\State=1-AG\HF=
 -79.20412\MP2=-79.3828921\RMSD=1.401e-09\RMSF=8.822e-05\Dipole=0.,0.,0
 .\PG=CI [X(C2H6)]\\@


 THE MOST BEAUTIFUL EXPERIENCE WE CAN HAVE IS THE MYSTERIOUS.
 IT IS THE FUNDAMENTAL EMOTION WHICH STANDS AT AT THE CRADLE 
 OF TRUE ART AND TRUE SCIENCE.

                                    -- ALBERT EINSTEIN
 Job cpu time:       0 days  0 hours  0 minutes 27.0 seconds.
 File lengths (MBytes):  RWF=      5 Int=      0 D2E=      0 Chk=      1 Scr=      1
 Normal termination of Gaussian 09 at Thu Feb 23 18:26:29 2017.
