 Entering Gaussian System, Link 0=g09
 Input=CH3_B_L.com
 Output=CH3_B_L.log
 Initial command:
 /sw/contrib/gaussian/g09/E01/g09/l1.exe "/scr/Gau-11514.inp" -scrdir="/scr/"
 Entering Link 1 = /sw/contrib/gaussian/g09/E01/g09/l1.exe PID=     11515.
  
 Copyright (c) 1988,1990,1992,1993,1995,1998,2003,2009,2015,
            Gaussian, Inc.  All Rights Reserved.
  
 This is part of the Gaussian(R) 09 program.  It is based on
 the Gaussian(R) 03 system (copyright 2003, Gaussian, Inc.),
 the Gaussian(R) 98 system (copyright 1998, Gaussian, Inc.),
 the Gaussian(R) 94 system (copyright 1995, Gaussian, Inc.),
 the Gaussian 92(TM) system (copyright 1992, Gaussian, Inc.),
 the Gaussian 90(TM) system (copyright 1990, Gaussian, Inc.),
 the Gaussian 88(TM) system (copyright 1988, Gaussian, Inc.),
 the Gaussian 86(TM) system (copyright 1986, Carnegie Mellon
 University), and the Gaussian 82(TM) system (copyright 1983,
 Carnegie Mellon University). Gaussian is a federally registered
 trademark of Gaussian, Inc.
  
 This software contains proprietary and confidential information,
 including trade secrets, belonging to Gaussian, Inc.
  
 This software is provided under written license and may be
 used, copied, transmitted, or stored only in accord with that
 written license.
  
 The following legend is applicable only to US Government
 contracts under FAR:
  
                    RESTRICTED RIGHTS LEGEND
  
 Use, reproduction and disclosure by the US Government is
 subject to restrictions as set forth in subparagraphs (a)
 and (c) of the Commercial Computer Software - Restricted
 Rights clause in FAR 52.227-19.
  
 Gaussian, Inc.
 340 Quinnipiac St., Bldg. 40, Wallingford CT 06492
  
  
 ---------------------------------------------------------------
 Warning -- This program may not be used in any manner that
 competes with the business of Gaussian, Inc. or will provide
 assistance to any competitor of Gaussian, Inc.  The licensee
 of this program is prohibited from giving any competitor of
 Gaussian, Inc. access to this program.  By using this program,
 the user acknowledges that Gaussian, Inc. is engaged in the
 business of creating and licensing software in the field of
 computational chemistry and represents and warrants to the
 licensee that it is not a competitor of Gaussian, Inc. and that
 it will not use this program in any manner prohibited above.
 ---------------------------------------------------------------
  

 Cite this work as:
 Gaussian 09, Revision E.01,
 M. J. Frisch, G. W. Trucks, H. B. Schlegel, G. E. Scuseria, 
 M. A. Robb, J. R. Cheeseman, G. Scalmani, V. Barone, B. Mennucci, 
 G. A. Petersson, H. Nakatsuji, M. Caricato, X. Li, H. P. Hratchian, 
 A. F. Izmaylov, J. Bloino, G. Zheng, J. L. Sonnenberg, M. Hada, 
 M. Ehara, K. Toyota, R. Fukuda, J. Hasegawa, M. Ishida, T. Nakajima, 
 Y. Honda, O. Kitao, H. Nakai, T. Vreven, J. A. Montgomery, Jr., 
 J. E. Peralta, F. Ogliaro, M. Bearpark, J. J. Heyd, E. Brothers, 
 K. N. Kudin, V. N. Staroverov, T. Keith, R. Kobayashi, J. Normand, 
 K. Raghavachari, A. Rendell, J. C. Burant, S. S. Iyengar, J. Tomasi, 
 M. Cossi, N. Rega, J. M. Millam, M. Klene, J. E. Knox, J. B. Cross, 
 V. Bakken, C. Adamo, J. Jaramillo, R. Gomperts, R. E. Stratmann, 
 O. Yazyev, A. J. Austin, R. Cammi, C. Pomelli, J. W. Ochterski, 
 R. L. Martin, K. Morokuma, V. G. Zakrzewski, G. A. Voth, 
 P. Salvador, J. J. Dannenberg, S. Dapprich, A. D. Daniels, 
 O. Farkas, J. B. Foresman, J. V. Ortiz, J. Cioslowski, 
 and D. J. Fox, Gaussian, Inc., Wallingford CT, 2013.
 
 ******************************************
 Gaussian 09:  ES64L-G09RevE.01 30-Nov-2015
                23-Feb-2017 
 ******************************************
 %NProcShared=8
 Will use up to    8 processors via shared memory.
 --------------------
 #n B3LYP/LANL2DZ Opt
 --------------------
 1/14=-1,18=20,19=15,26=3,38=1/1,3;
 2/9=110,12=2,17=6,18=5,40=1/2;
 3/5=6,6=3,11=2,16=1,25=1,30=1,71=1,74=-5/1,2,3;
 4//1;
 5/5=2,38=5/2;
 6/7=2,8=2,9=2,10=2,28=1/1;
 7//1,2,3,16;
 1/14=-1,18=20,19=15,26=3/3(2);
 2/9=110/2;
 99//99;
 2/9=110/2;
 3/5=6,6=3,11=2,16=1,25=1,30=1,71=1,74=-5/1,2,3;
 4/5=5,16=3,69=1/1;
 5/5=2,38=5/2;
 7//1,2,3,16;
 1/14=-1,18=20,19=15,26=3/3(-5);
 2/9=110/2;
 6/7=2,8=2,9=2,10=2,19=2,28=1/1;
 99/9=1/99;
 --------------------
 CH3_B3LYP/6-31G(d,p)
 --------------------
 Symbolic Z-matrix:
 Charge =  0 Multiplicity = 1
 C                    -1.76985   1.60508   0. 
 C                    -0.94833   0.30637   0. 
 H                    -2.70278   1.46556   0.5507 
 H                    -2.01181   1.90264  -1.02275 
 H                    -1.2057    2.41255   0.47205 
 H                    -1.51248  -0.5011   -0.47205 
 H                    -0.70637   0.00881   1.02275 
 H                    -0.0154    0.44589  -0.5507 
 

 GradGradGradGradGradGradGradGradGradGradGradGradGradGradGradGradGradGrad
 Berny optimization.
 Initialization pass.
                           ----------------------------
                           !    Initial Parameters    !
                           ! (Angstroms and Degrees)  !
 --------------------------                            --------------------------
 ! Name  Definition              Value          Derivative Info.                !
 --------------------------------------------------------------------------------
 ! R1    R(1,2)                  1.5367         estimate D2E/DX2                !
 ! R2    R(1,3)                  1.0923         estimate D2E/DX2                !
 ! R3    R(1,4)                  1.0923         estimate D2E/DX2                !
 ! R4    R(1,5)                  1.0923         estimate D2E/DX2                !
 ! R5    R(2,6)                  1.0923         estimate D2E/DX2                !
 ! R6    R(2,7)                  1.0923         estimate D2E/DX2                !
 ! R7    R(2,8)                  1.0923         estimate D2E/DX2                !
 ! A1    A(2,1,3)              110.4046         estimate D2E/DX2                !
 ! A2    A(2,1,4)              110.4044         estimate D2E/DX2                !
 ! A3    A(2,1,5)              110.404          estimate D2E/DX2                !
 ! A4    A(3,1,4)              108.5221         estimate D2E/DX2                !
 ! A5    A(3,1,5)              108.5221         estimate D2E/DX2                !
 ! A6    A(4,1,5)              108.5224         estimate D2E/DX2                !
 ! A7    A(1,2,6)              110.404          estimate D2E/DX2                !
 ! A8    A(1,2,7)              110.4044         estimate D2E/DX2                !
 ! A9    A(1,2,8)              110.4046         estimate D2E/DX2                !
 ! A10   A(6,2,7)              108.5224         estimate D2E/DX2                !
 ! A11   A(6,2,8)              108.5221         estimate D2E/DX2                !
 ! A12   A(7,2,8)              108.5221         estimate D2E/DX2                !
 ! D1    D(3,1,2,6)             60.0001         estimate D2E/DX2                !
 ! D2    D(3,1,2,7)            -59.9999         estimate D2E/DX2                !
 ! D3    D(3,1,2,8)            180.0            estimate D2E/DX2                !
 ! D4    D(4,1,2,6)            -59.9999         estimate D2E/DX2                !
 ! D5    D(4,1,2,7)            180.0            estimate D2E/DX2                !
 ! D6    D(4,1,2,8)             59.9999         estimate D2E/DX2                !
 ! D7    D(5,1,2,6)           -180.0            estimate D2E/DX2                !
 ! D8    D(5,1,2,7)             59.9999         estimate D2E/DX2                !
 ! D9    D(5,1,2,8)            -60.0001         estimate D2E/DX2                !
 --------------------------------------------------------------------------------
 Trust Radius=3.00D-01 FncErr=1.00D-07 GrdErr=1.00D-06
 Number of steps in this run=     38 maximum allowed number of steps=    100.
 GradGradGradGradGradGradGradGradGradGradGradGradGradGradGradGradGradGrad

                          Input orientation:                          
 ---------------------------------------------------------------------
 Center     Atomic      Atomic             Coordinates (Angstroms)
 Number     Number       Type             X           Y           Z
 ---------------------------------------------------------------------
      1          6           0       -1.769850    1.605080    0.000000
      2          6           0       -0.948330    0.306370    0.000000
      3          1           0       -2.702780    1.465560    0.550700
      4          1           0       -2.011810    1.902640   -1.022750
      5          1           0       -1.205700    2.412550    0.472050
      6          1           0       -1.512480   -0.501100   -0.472050
      7          1           0       -0.706370    0.008810    1.022750
      8          1           0       -0.015400    0.445890   -0.550700
 ---------------------------------------------------------------------
                    Distance matrix (angstroms):
                    1          2          3          4          5
     1  C    0.000000
     2  C    1.536731   0.000000
     3  H    1.092289   2.173726   0.000000
     4  H    1.092293   2.173726   1.773196   0.000000
     5  H    1.092293   2.173721   1.773196   1.773203   0.000000
     6  H    2.173721   1.092293   2.516065   2.516062   3.078116
     7  H    2.173726   1.092293   2.516069   3.078122   2.516062
     8  H    2.173726   1.092289   3.078120   2.516069   2.516065
                    6          7          8
     6  H    0.000000
     7  H    1.773203   0.000000
     8  H    1.773196   1.773196   0.000000
 This structure is nearly, but not quite of a higher symmetry.
 Consider Symm=Loose if the higher symmetry is desired.
 Stoichiometry    C2H6
 Framework group  CI[X(C2H6)]
 Deg. of freedom     9
 Full point group                 CI      NOp   2
 Largest Abelian subgroup         CI      NOp   2
 Largest concise Abelian subgroup CI      NOp   2
                         Standard orientation:                         
 ---------------------------------------------------------------------
 Center     Atomic      Atomic             Coordinates (Angstroms)
 Number     Number       Type             X           Y           Z
 ---------------------------------------------------------------------
      1          6           0       -0.410760    0.649355    0.000000
      2          6           0        0.410760   -0.649355    0.000000
      3          1           0       -1.343690    0.509835    0.550700
      4          1           0       -0.652720    0.946915   -1.022750
      5          1           0        0.153390    1.456825    0.472050
      6          1           0       -0.153390   -1.456825   -0.472050
      7          1           0        0.652720   -0.946915    1.022750
      8          1           0        1.343690   -0.509835   -0.550700
 ---------------------------------------------------------------------
 Rotational constants (GHZ):     79.7420612     19.9566490     19.9566228
 Standard basis: LANL2DZ (5D, 7F)
 There are    15 symmetry adapted cartesian basis functions of AG  symmetry.
 There are    15 symmetry adapted cartesian basis functions of AU  symmetry.
 There are    15 symmetry adapted basis functions of AG  symmetry.
 There are    15 symmetry adapted basis functions of AU  symmetry.
    30 basis functions,    74 primitive gaussians,    30 cartesian basis functions
     9 alpha electrons        9 beta electrons
       nuclear repulsion energy        42.1696170358 Hartrees.
 NAtoms=    8 NActive=    8 NUniq=    4 SFac= 4.00D+00 NAtFMM=   60 NAOKFM=F Big=F
 Integral buffers will be    131072 words long.
 Raffenetti 2 integral format.
 Two-electron integral symmetry is turned on.
 One-electron integrals computed using PRISM.
   2 Symmetry operations used in ECPInt.
 ECPInt:  NShTT=     253 NPrTT=    1559 LenC2=     254 LenP2D=    1400.
 LDataN:  DoStor=T MaxTD1= 2 Len=   12
 NBasis=    30 RedAO= T EigKep=  6.44D-03  NBF=    15    15
 NBsUse=    30 1.00D-06 EigRej= -1.00D+00 NBFU=    15    15
 ExpMin= 1.15D-01 ExpMax= 4.23D+03 ExpMxC= 1.46D+02 IAcc=1 IRadAn=         1 AccDes= 0.00D+00
 Harris functional with IExCor=  402 and IRadAn=       1 diagonalized for initial guess.
 HarFok:  IExCor=  402 AccDes= 0.00D+00 IRadAn=         1 IDoV= 1 UseB2=F ITyADJ=14
 ICtDFT=  3500011 ScaDFX=  1.000000  1.000000  1.000000  1.000000
 FoFCou: FMM=F IPFlag=           0 FMFlag=      100000 FMFlg1=           0
         NFxFlg=           0 DoJE=T BraDBF=F KetDBF=T FulRan=T
         wScrn=  0.000000 ICntrl=     500 IOpCl=  0 I1Cent=   200000004 NGrid=           0
         NMat0=    1 NMatS0=      1 NMatT0=    0 NMatD0=    1 NMtDS0=    0 NMtDT0=    0
 Petite list used in FoFCou.
 Initial guess orbital symmetries:
       Occupied  (AG) (AU) (AG) (AU) (AU) (AU) (AG) (AG) (AG)
       Virtual   (AU) (AG) (AU) (AU) (AG) (AG) (AU) (AU) (AU) (AG)
                 (AG) (AG) (AU) (AG) (AU) (AG) (AU) (AU) (AG) (AG)
                 (AU)
 The electronic state of the initial guess is 1-AG.
 Keep R1 ints in memory in symmetry-blocked form, NReq=991481.
 Requested convergence on RMS density matrix=1.00D-08 within 128 cycles.
 Requested convergence on MAX density matrix=1.00D-06.
 Requested convergence on             energy=1.00D-06.
 No special actions if energy rises.
 Integral accuracy reduced to 1.0D-05 until final iterations.
 Initial convergence to 1.0D-05 achieved.  Increase integral accuracy.
 SCF Done:  E(RB3LYP) =  -79.8185633516     A.U. after   10 cycles
            NFock= 10  Conv=0.23D-08     -V/T= 2.0065

 **********************************************************************

            Population analysis using the SCF density.

 **********************************************************************

 Orbital symmetries:
       Occupied  (AG) (AU) (AG) (AU) (AU) (AU) (AG) (AG) (AG)
       Virtual   (AU) (AG) (AG) (AG) (AU) (AU) (AU) (AU) (AU) (AG)
                 (AG) (AG) (AU) (AG) (AU) (AG) (AU) (AU) (AG) (AG)
                 (AU)
 The electronic state is 1-AG.
 Alpha  occ. eigenvalues --  -10.16824 -10.16805  -0.74877  -0.61167  -0.43231
 Alpha  occ. eigenvalues --   -0.43231  -0.35816  -0.34014  -0.34014
 Alpha virt. eigenvalues --    0.12810   0.13458   0.19434   0.19434   0.22251
 Alpha virt. eigenvalues --    0.22251   0.24022   0.29066   0.29067   0.29232
 Alpha virt. eigenvalues --    0.32988   0.32989   0.49341   0.92152   1.04176
 Alpha virt. eigenvalues --    1.09175   1.12268   1.12268   1.14233   1.14233
 Alpha virt. eigenvalues --    1.36070
          Condensed to atoms (all electrons):
               1          2          3          4          5          6
     1  C    5.250591   0.310025   0.383702   0.383704   0.383706  -0.040121
     2  C    0.310025   5.250591  -0.040121  -0.040121  -0.040121   0.383706
     3  H    0.383702  -0.040121   0.504369  -0.021528  -0.021528  -0.002588
     4  H    0.383704  -0.040121  -0.021528   0.504367  -0.021527  -0.002588
     5  H    0.383706  -0.040121  -0.021528  -0.021527   0.504363   0.003162
     6  H   -0.040121   0.383706  -0.002588  -0.002588   0.003162   0.504363
     7  H   -0.040121   0.383704  -0.002588   0.003162  -0.002588  -0.021527
     8  H   -0.040121   0.383702   0.003162  -0.002588  -0.002588  -0.021528
               7          8
     1  C   -0.040121  -0.040121
     2  C    0.383704   0.383702
     3  H   -0.002588   0.003162
     4  H    0.003162  -0.002588
     5  H   -0.002588  -0.002588
     6  H   -0.021527  -0.021528
     7  H    0.504367  -0.021528
     8  H   -0.021528   0.504369
 Mulliken charges:
               1
     1  C   -0.591365
     2  C   -0.591365
     3  H    0.197121
     4  H    0.197120
     5  H    0.197123
     6  H    0.197123
     7  H    0.197120
     8  H    0.197121
 Sum of Mulliken charges =   0.00000
 Mulliken charges with hydrogens summed into heavy atoms:
               1
     1  C    0.000000
     2  C    0.000000
 Electronic spatial extent (au):  <R**2>=            108.9076
 Charge=              0.0000 electrons
 Dipole moment (field-independent basis, Debye):
    X=              0.0000    Y=              0.0000    Z=              0.0000  Tot=              0.0000
 Quadrupole moment (field-independent basis, Debye-Ang):
   XX=            -14.6958   YY=            -15.0077   ZZ=            -14.4878
   XY=              0.3289   XZ=              0.0000   YZ=              0.0000
 Traceless Quadrupole moment (field-independent basis, Debye-Ang):
   XX=              0.0346   YY=             -0.2773   ZZ=              0.2426
   XY=              0.3289   XZ=              0.0000   YZ=              0.0000
 Octapole moment (field-independent basis, Debye-Ang**2):
  XXX=              0.0000  YYY=              0.0000  ZZZ=              0.0000  XYY=              0.0000
  XXY=              0.0000  XXZ=              0.0000  XZZ=              0.0000  YZZ=              0.0000
  YYZ=              0.0000  XYZ=              0.0000
 Hexadecapole moment (field-independent basis, Debye-Ang**3):
 XXXX=            -44.5546 YYYY=            -71.8038 ZZZZ=            -27.6811 XXXY=             13.6799
 XXXZ=             -1.7869 YYYX=             15.5422 YYYZ=              1.1303 ZZZX=              0.8339
 ZZZY=             -1.3183 XXYY=            -20.2280 XXZZ=            -11.6839 YYZZ=            -16.0276
 XXYZ=              0.1881 YYXZ=              0.9529 ZZXY=              4.0929
 N-N= 4.216961703580D+01 E-N=-2.684573397307D+02  KE= 7.930028097814D+01
 Symmetry AG   KE= 4.116945143559D+01
 Symmetry AU   KE= 3.813082954254D+01
   2 Symmetry operations used in ECPInt.
 ECPInt:  NShTT=     253 NPrTT=    1559 LenC2=     254 LenP2D=    1400.
 LDataN:  DoStor=T MaxTD1= 3 Len=   28
 Calling FoFJK, ICntrl=      2127 FMM=F ISym2X=1 I1Cent= 0 IOpClX= 0 NMat=1 NMatS=1 NMatT=0.
 ***** Axes restored to original set *****
 -------------------------------------------------------------------
 Center     Atomic                   Forces (Hartrees/Bohr)
 Number     Number              X              Y              Z
 -------------------------------------------------------------------
      1        6           0.001246722   -0.002014538    0.000017200
      2        6          -0.001246722    0.002014538   -0.000017200
      3        1          -0.003438446    0.001470796    0.001355645
      4        1          -0.001747120    0.002554346   -0.002519860
      5        1           0.000236460    0.003813794    0.001158531
      6        1          -0.000236460   -0.003813794   -0.001158531
      7        1           0.001747120   -0.002554346    0.002519860
      8        1           0.003438446   -0.001470796   -0.001355645
 -------------------------------------------------------------------
 Cartesian Forces:  Max     0.003813794 RMS     0.002107661

 GradGradGradGradGradGradGradGradGradGradGradGradGradGradGradGradGradGrad
 Berny optimization.
 FormGI is forming the generalized inverse of G from B-inverse, IUseBI=4.
 Internal  Forces:  Max     0.006901524 RMS     0.002456041
 Search for a local minimum.
 Step number   1 out of a maximum of   38
 All quantities printed in internal units (Hartrees-Bohrs-Radians)
 Mixed Optimization -- RFO/linear search
 Second derivative matrix not updated -- first step.
 ITU=  0
     Eigenvalues ---    0.00280   0.05575   0.05575   0.05575   0.05575
     Eigenvalues ---    0.16000   0.16000   0.16000   0.16000   0.16000
     Eigenvalues ---    0.16000   0.28810   0.34549   0.34549   0.34549
     Eigenvalues ---    0.34549   0.34549   0.34549
 RFO step:  Lambda=-6.83012555D-04 EMin= 2.80064107D-03
 Linear search not attempted -- first point.
 Iteration  1 RMS(Cart)=  0.01855664 RMS(Int)=  0.00007998
 Iteration  2 RMS(Cart)=  0.00007087 RMS(Int)=  0.00005027
 Iteration  3 RMS(Cart)=  0.00000000 RMS(Int)=  0.00005027
 ClnCor:  largest displacement from symmetrization is 7.60D-09 for atom     8.
 Variable       Old X    -DE/DX   Delta X   Delta X   Delta X     New X
                                 (Linear)    (Quad)   (Total)
    R1        2.90400   0.00690   0.00000   0.02390   0.02390   2.92790
    R2        2.06413   0.00343   0.00000   0.00991   0.00991   2.07403
    R3        2.06413   0.00344   0.00000   0.00995   0.00995   2.07408
    R4        2.06413   0.00344   0.00000   0.00995   0.00995   2.07408
    R5        2.06413   0.00344   0.00000   0.00995   0.00995   2.07408
    R6        2.06413   0.00344   0.00000   0.00995   0.00995   2.07408
    R7        2.06413   0.00343   0.00000   0.00991   0.00991   2.07403
    A1        1.92692   0.00201   0.00000   0.01254   0.01246   1.93939
    A2        1.92692   0.00201   0.00000   0.01251   0.01243   1.93935
    A3        1.92691   0.00202   0.00000   0.01254   0.01246   1.93937
    A4        1.89407  -0.00208   0.00000  -0.01291  -0.01299   1.88108
    A5        1.89407  -0.00208   0.00000  -0.01293  -0.01300   1.88106
    A6        1.89407  -0.00209   0.00000  -0.01302  -0.01309   1.88098
    A7        1.92691   0.00202   0.00000   0.01254   0.01246   1.93937
    A8        1.92692   0.00201   0.00000   0.01251   0.01243   1.93935
    A9        1.92692   0.00201   0.00000   0.01254   0.01246   1.93939
   A10        1.89407  -0.00209   0.00000  -0.01302  -0.01309   1.88098
   A11        1.89407  -0.00208   0.00000  -0.01293  -0.01300   1.88106
   A12        1.89407  -0.00208   0.00000  -0.01291  -0.01299   1.88108
    D1        1.04720   0.00000   0.00000  -0.00004  -0.00004   1.04716
    D2       -1.04720   0.00000   0.00000   0.00004   0.00004  -1.04715
    D3        3.14159   0.00000   0.00000   0.00000   0.00000   3.14159
    D4       -1.04720   0.00000   0.00000  -0.00009  -0.00009  -1.04728
    D5        3.14159   0.00000   0.00000   0.00000   0.00000   3.14159
    D6        1.04720   0.00000   0.00000  -0.00004  -0.00004   1.04715
    D7        3.14159   0.00000   0.00000   0.00000   0.00000   3.14159
    D8        1.04720   0.00000   0.00000   0.00009   0.00009   1.04728
    D9       -1.04720   0.00000   0.00000   0.00004   0.00004  -1.04716
         Item               Value     Threshold  Converged?
 Maximum Force            0.006902     0.000450     NO 
 RMS     Force            0.002456     0.000300     NO 
 Maximum Displacement     0.033543     0.001800     NO 
 RMS     Displacement     0.018588     0.001200     NO 
 Predicted change in Energy=-3.425666D-04
 GradGradGradGradGradGradGradGradGradGradGradGradGradGradGradGradGradGrad

                          Input orientation:                          
 ---------------------------------------------------------------------
 Center     Atomic      Atomic             Coordinates (Angstroms)
 Number     Number       Type             X           Y           Z
 ---------------------------------------------------------------------
      1          6           0       -1.773239    1.610418    0.000013
      2          6           0       -0.944941    0.301032   -0.000013
      3          1           0       -2.714023    1.483200    0.550755
      4          1           0       -2.022979    1.920341   -1.022831
      5          1           0       -1.216832    2.430300    0.472070
      6          1           0       -1.501348   -0.518850   -0.472070
      7          1           0       -0.695201   -0.008891    1.022831
      8          1           0       -0.004157    0.428250   -0.550755
 ---------------------------------------------------------------------
                    Distance matrix (angstroms):
                    1          2          3          4          5
     1  C    0.000000
     2  C    1.549378   0.000000
     3  H    1.097531   2.197844   0.000000
     4  H    1.097557   2.197836   1.773360   0.000000
     5  H    1.097558   2.197856   1.773350   1.773318   0.000000
     6  H    2.197856   1.097558   2.554399   2.554425   3.109636
     7  H    2.197836   1.097557   2.554374   3.109607   2.554425
     8  H    2.197844   1.097531   3.109600   2.554374   2.554399
                    6          7          8
     6  H    0.000000
     7  H    1.773318   0.000000
     8  H    1.773350   1.773360   0.000000
 Stoichiometry    C2H6
 Framework group  CI[X(C2H6)]
 Deg. of freedom     9
 Full point group                 CI      NOp   2
 Largest Abelian subgroup         CI      NOp   2
 Largest concise Abelian subgroup CI      NOp   2
                         Standard orientation:                         
 ---------------------------------------------------------------------
 Center     Atomic      Atomic             Coordinates (Angstroms)
 Number     Number       Type             X           Y           Z
 ---------------------------------------------------------------------
      1          6           0       -0.414149    0.654693    0.000013
      2          6           0        0.414149   -0.654693   -0.000013
      3          1           0       -1.354933    0.527475    0.550755
      4          1           0       -0.663889    0.964616   -1.022831
      5          1           0        0.142258    1.474575    0.472070
      6          1           0       -0.142258   -1.474575   -0.472070
      7          1           0        0.663889   -0.964616    1.022831
      8          1           0        1.354933   -0.527475   -0.550755
 ---------------------------------------------------------------------
 Rotational constants (GHZ):     79.7290702     19.5489051     19.5487697
 Standard basis: LANL2DZ (5D, 7F)
 There are    15 symmetry adapted cartesian basis functions of AG  symmetry.
 There are    15 symmetry adapted cartesian basis functions of AU  symmetry.
 There are    15 symmetry adapted basis functions of AG  symmetry.
 There are    15 symmetry adapted basis functions of AU  symmetry.
    30 basis functions,    74 primitive gaussians,    30 cartesian basis functions
     9 alpha electrons        9 beta electrons
       nuclear repulsion energy        41.8644078368 Hartrees.
 NAtoms=    8 NActive=    8 NUniq=    4 SFac= 4.00D+00 NAtFMM=   60 NAOKFM=F Big=F
 Integral buffers will be    131072 words long.
 Raffenetti 2 integral format.
 Two-electron integral symmetry is turned on.
 One-electron integrals computed using PRISM.
   2 Symmetry operations used in ECPInt.
 ECPInt:  NShTT=     253 NPrTT=    1559 LenC2=     254 LenP2D=    1400.
 LDataN:  DoStor=T MaxTD1= 2 Len=   12
 NBasis=    30 RedAO= T EigKep=  6.63D-03  NBF=    15    15
 NBsUse=    30 1.00D-06 EigRej= -1.00D+00 NBFU=    15    15
 Initial guess from the checkpoint file:  "/scr/Gau-11515.chk"
 B after Tr=     0.000000    0.000000    0.000000
         Rot=    1.000000   -0.000002   -0.000001   -0.000002 Ang=   0.00 deg.
 Initial guess orbital symmetries:
       Occupied  (AG) (AU) (AG) (AU) (AU) (AU) (AG) (AG) (AG)
       Virtual   (AG) (AG) (AG) (AG) (AG) (AG) (AG) (AG) (AG) (AG)
                 (AU) (AU) (AU) (AU) (AU) (AU) (AU) (AU) (AU) (AU)
                 (AU)
 ExpMin= 1.15D-01 ExpMax= 4.23D+03 ExpMxC= 1.46D+02 IAcc=1 IRadAn=         1 AccDes= 0.00D+00
 Harris functional with IExCor=  402 and IRadAn=       1 diagonalized for initial guess.
 HarFok:  IExCor=  402 AccDes= 0.00D+00 IRadAn=         1 IDoV= 1 UseB2=F ITyADJ=14
 ICtDFT=  3500011 ScaDFX=  1.000000  1.000000  1.000000  1.000000
 FoFCou: FMM=F IPFlag=           0 FMFlag=      100000 FMFlg1=           0
         NFxFlg=           0 DoJE=T BraDBF=F KetDBF=T FulRan=T
         wScrn=  0.000000 ICntrl=     500 IOpCl=  0 I1Cent=   200000004 NGrid=           0
         NMat0=    1 NMatS0=      1 NMatT0=    0 NMatD0=    1 NMtDS0=    0 NMtDT0=    0
 Petite list used in FoFCou.
 Keep R1 ints in memory in symmetry-blocked form, NReq=991481.
 Requested convergence on RMS density matrix=1.00D-08 within 128 cycles.
 Requested convergence on MAX density matrix=1.00D-06.
 Requested convergence on             energy=1.00D-06.
 No special actions if energy rises.
 Integral accuracy reduced to 1.0D-05 until final iterations.
 Initial convergence to 1.0D-05 achieved.  Increase integral accuracy.
 SCF Done:  E(RB3LYP) =  -79.8188578299     A.U. after    9 cycles
            NFock=  9  Conv=0.23D-08     -V/T= 2.0074
   2 Symmetry operations used in ECPInt.
 ECPInt:  NShTT=     253 NPrTT=    1559 LenC2=     254 LenP2D=    1400.
 LDataN:  DoStor=T MaxTD1= 3 Len=   28
 Calling FoFJK, ICntrl=      2127 FMM=F ISym2X=1 I1Cent= 0 IOpClX= 0 NMat=1 NMatS=1 NMatT=0.
 ***** Axes restored to original set *****
 -------------------------------------------------------------------
 Center     Atomic                   Forces (Hartrees/Bohr)
 Number     Number              X              Y              Z
 -------------------------------------------------------------------
      1        6           0.001557459   -0.002468646    0.000000370
      2        6          -0.001557459    0.002468646   -0.000000370
      3        1          -0.000143538   -0.000181161    0.000140319
      4        1           0.000025756   -0.000071362   -0.000253722
      5        1           0.000228898    0.000058872    0.000117854
      6        1          -0.000228898   -0.000058872   -0.000117854
      7        1          -0.000025756    0.000071362    0.000253722
      8        1           0.000143538    0.000181161   -0.000140319
 -------------------------------------------------------------------
 Cartesian Forces:  Max     0.002468646 RMS     0.000853077

 GradGradGradGradGradGradGradGradGradGradGradGradGradGradGradGradGradGrad
 Berny optimization.
 Using GEDIIS/GDIIS optimizer.
 FormGI is forming the generalized inverse of G from B-inverse, IUseBI=4.
 Internal  Forces:  Max     0.003141942 RMS     0.000611165
 Search for a local minimum.
 Step number   2 out of a maximum of   38
 All quantities printed in internal units (Hartrees-Bohrs-Radians)
 Mixed Optimization -- En-DIIS/RFO-DIIS
 Update second derivatives using D2CorX and points    1    2
 DE= -2.94D-04 DEPred=-3.43D-04 R= 8.60D-01
 TightC=F SS=  1.41D+00  RLast= 5.58D-02 DXNew= 5.0454D-01 1.6735D-01
 Trust test= 8.60D-01 RLast= 5.58D-02 DXMaxT set to 3.00D-01
 ITU=  1  0
 Use linear search instead of GDIIS.
     Eigenvalues ---    0.00280   0.05444   0.05444   0.05444   0.05444
     Eigenvalues ---    0.15784   0.16000   0.16000   0.16000   0.16000
     Eigenvalues ---    0.16000   0.31625   0.34549   0.34549   0.34549
     Eigenvalues ---    0.34549   0.34549   0.36097
 RFO step:  Lambda=-2.01610842D-05 EMin= 2.80064107D-03
 Quartic linear search produced a step of -0.11604.
 Iteration  1 RMS(Cart)=  0.00276943 RMS(Int)=  0.00000561
 Iteration  2 RMS(Cart)=  0.00000039 RMS(Int)=  0.00000561
 ClnCor:  largest displacement from symmetrization is 4.49D-10 for atom     7.
 Variable       Old X    -DE/DX   Delta X   Delta X   Delta X     New X
                                 (Linear)    (Quad)   (Total)
    R1        2.92790  -0.00314  -0.00277  -0.00621  -0.00898   2.91892
    R2        2.07403   0.00021  -0.00115   0.00197   0.00082   2.07485
    R3        2.07408   0.00021  -0.00115   0.00197   0.00082   2.07490
    R4        2.07408   0.00021  -0.00115   0.00197   0.00082   2.07490
    R5        2.07408   0.00021  -0.00115   0.00197   0.00082   2.07490
    R6        2.07408   0.00021  -0.00115   0.00197   0.00082   2.07490
    R7        2.07403   0.00021  -0.00115   0.00197   0.00082   2.07485
    A1        1.93939  -0.00016  -0.00145   0.00089  -0.00054   1.93884
    A2        1.93935  -0.00016  -0.00144   0.00088  -0.00056   1.93879
    A3        1.93937  -0.00016  -0.00145   0.00088  -0.00056   1.93882
    A4        1.88108   0.00017   0.00151  -0.00093   0.00058   1.88166
    A5        1.88106   0.00017   0.00151  -0.00093   0.00058   1.88165
    A6        1.88098   0.00017   0.00152  -0.00094   0.00058   1.88157
    A7        1.93937  -0.00016  -0.00145   0.00088  -0.00056   1.93882
    A8        1.93935  -0.00016  -0.00144   0.00088  -0.00056   1.93879
    A9        1.93939  -0.00016  -0.00145   0.00089  -0.00054   1.93884
   A10        1.88098   0.00017   0.00152  -0.00094   0.00058   1.88157
   A11        1.88106   0.00017   0.00151  -0.00093   0.00058   1.88165
   A12        1.88108   0.00017   0.00151  -0.00093   0.00058   1.88166
    D1        1.04716   0.00000   0.00001  -0.00001   0.00000   1.04715
    D2       -1.04715   0.00000   0.00000   0.00001   0.00000  -1.04715
    D3        3.14159   0.00000   0.00000   0.00000   0.00000   3.14159
    D4       -1.04728   0.00000   0.00001  -0.00002  -0.00001  -1.04729
    D5        3.14159   0.00000   0.00000   0.00000   0.00000   3.14159
    D6        1.04715   0.00000   0.00000  -0.00001   0.00000   1.04715
    D7        3.14159   0.00000   0.00000   0.00000   0.00000   3.14159
    D8        1.04728   0.00000  -0.00001   0.00002   0.00001   1.04729
    D9       -1.04716   0.00000  -0.00001   0.00001   0.00000  -1.04715
         Item               Value     Threshold  Converged?
 Maximum Force            0.003142     0.000450     NO 
 RMS     Force            0.000611     0.000300     NO 
 Maximum Displacement     0.004972     0.001800     NO 
 RMS     Displacement     0.002770     0.001200     NO 
 Predicted change in Energy=-1.510003D-05
 GradGradGradGradGradGradGradGradGradGradGradGradGradGradGradGradGradGrad

                          Input orientation:                          
 ---------------------------------------------------------------------
 Center     Atomic      Atomic             Coordinates (Angstroms)
 Number     Number       Type             X           Y           Z
 ---------------------------------------------------------------------
      1          6           0       -1.771971    1.608409    0.000015
      2          6           0       -0.946209    0.303041   -0.000015
      3          1           0       -2.712981    1.480569    0.551091
      4          1           0       -2.021513    1.917970   -1.023451
      5          1           0       -1.214876    2.428240    0.472358
      6          1           0       -1.503304   -0.516790   -0.472358
      7          1           0       -0.696667   -0.006520    1.023451
      8          1           0       -0.005199    0.430881   -0.551091
 ---------------------------------------------------------------------
                    Distance matrix (angstroms):
                    1          2          3          4          5
     1  C    0.000000
     2  C    1.544625   0.000000
     3  H    1.097965   2.193575   0.000000
     4  H    1.097990   2.193558   1.774438   0.000000
     5  H    1.097992   2.193579   1.774429   1.774396   0.000000
     6  H    2.193579   1.097992   2.549550   2.549568   3.106264
     7  H    2.193558   1.097990   2.549525   3.106233   2.549568
     8  H    2.193575   1.097965   3.106240   2.549525   2.549550
                    6          7          8
     6  H    0.000000
     7  H    1.774396   0.000000
     8  H    1.774429   1.774438   0.000000
 Stoichiometry    C2H6
 Framework group  CI[X(C2H6)]
 Deg. of freedom     9
 Full point group                 CI      NOp   2
 Largest Abelian subgroup         CI      NOp   2
 Largest concise Abelian subgroup CI      NOp   2
                         Standard orientation:                         
 ---------------------------------------------------------------------
 Center     Atomic      Atomic             Coordinates (Angstroms)
 Number     Number       Type             X           Y           Z
 ---------------------------------------------------------------------
      1          6           0       -0.412881    0.652684    0.000015
      2          6           0        0.412881   -0.652684   -0.000015
      3          1           0       -1.353891    0.524844    0.551091
      4          1           0       -0.662423    0.962245   -1.023451
      5          1           0        0.144214    1.472515    0.472358
      6          1           0       -0.144214   -1.472515   -0.472358
      7          1           0        0.662423   -0.962245    1.023451
      8          1           0        1.353891   -0.524844   -0.551091
 ---------------------------------------------------------------------
 Rotational constants (GHZ):     79.6322074     19.6429170     19.6427787
 Standard basis: LANL2DZ (5D, 7F)
 There are    15 symmetry adapted cartesian basis functions of AG  symmetry.
 There are    15 symmetry adapted cartesian basis functions of AU  symmetry.
 There are    15 symmetry adapted basis functions of AG  symmetry.
 There are    15 symmetry adapted basis functions of AU  symmetry.
    30 basis functions,    74 primitive gaussians,    30 cartesian basis functions
     9 alpha electrons        9 beta electrons
       nuclear repulsion energy        41.9141051400 Hartrees.
 NAtoms=    8 NActive=    8 NUniq=    4 SFac= 4.00D+00 NAtFMM=   60 NAOKFM=F Big=F
 Integral buffers will be    131072 words long.
 Raffenetti 2 integral format.
 Two-electron integral symmetry is turned on.
 One-electron integrals computed using PRISM.
   2 Symmetry operations used in ECPInt.
 ECPInt:  NShTT=     253 NPrTT=    1559 LenC2=     254 LenP2D=    1400.
 LDataN:  DoStor=T MaxTD1= 2 Len=   12
 NBasis=    30 RedAO= T EigKep=  6.61D-03  NBF=    15    15
 NBsUse=    30 1.00D-06 EigRej= -1.00D+00 NBFU=    15    15
 Initial guess from the checkpoint file:  "/scr/Gau-11515.chk"
 B after Tr=     0.000000    0.000000    0.000000
         Rot=    1.000000    0.000000    0.000000   -0.000001 Ang=   0.00 deg.
 Initial guess orbital symmetries:
       Occupied  (AG) (AU) (AG) (AU) (AU) (AU) (AG) (AG) (AG)
       Virtual   (AG) (AG) (AG) (AG) (AG) (AG) (AG) (AG) (AG) (AG)
                 (AU) (AU) (AU) (AU) (AU) (AU) (AU) (AU) (AU) (AU)
                 (AU)
 Keep R1 ints in memory in symmetry-blocked form, NReq=991481.
 Requested convergence on RMS density matrix=1.00D-08 within 128 cycles.
 Requested convergence on MAX density matrix=1.00D-06.
 Requested convergence on             energy=1.00D-06.
 No special actions if energy rises.
 SCF Done:  E(RB3LYP) =  -79.8188746400     A.U. after    6 cycles
            NFock=  6  Conv=0.23D-08     -V/T= 2.0073
   2 Symmetry operations used in ECPInt.
 ECPInt:  NShTT=     253 NPrTT=    1559 LenC2=     254 LenP2D=    1400.
 LDataN:  DoStor=T MaxTD1= 3 Len=   28
 Calling FoFJK, ICntrl=      2127 FMM=F ISym2X=1 I1Cent= 0 IOpClX= 0 NMat=1 NMatS=1 NMatT=0.
 ***** Axes restored to original set *****
 -------------------------------------------------------------------
 Center     Atomic                   Forces (Hartrees/Bohr)
 Number     Number              X              Y              Z
 -------------------------------------------------------------------
      1        6           0.000342541   -0.000544089    0.000000001
      2        6          -0.000342541    0.000544089   -0.000000001
      3        1           0.000026330    0.000089004   -0.000043518
      4        1          -0.000035556    0.000053720    0.000086961
      5        1          -0.000101418    0.000013376   -0.000039752
      6        1           0.000101418   -0.000013376    0.000039752
      7        1           0.000035556   -0.000053720   -0.000086961
      8        1          -0.000026330   -0.000089004    0.000043518
 -------------------------------------------------------------------
 Cartesian Forces:  Max     0.000544089 RMS     0.000193139

 GradGradGradGradGradGradGradGradGradGradGradGradGradGradGradGradGradGrad
 Berny optimization.
 Using GEDIIS/GDIIS optimizer.
 FormGI is forming the generalized inverse of G from B-inverse, IUseBI=4.
 Internal  Forces:  Max     0.000451864 RMS     0.000107411
 Search for a local minimum.
 Step number   3 out of a maximum of   38
 All quantities printed in internal units (Hartrees-Bohrs-Radians)
 Mixed Optimization -- En-DIIS/RFO-DIIS
 Swapping is turned off.
 Update second derivatives using D2CorX and points    1    2    3
 DE= -1.68D-05 DEPred=-1.51D-05 R= 1.11D+00
 TightC=F SS=  1.41D+00  RLast= 9.41D-03 DXNew= 5.0454D-01 2.8229D-02
 Trust test= 1.11D+00 RLast= 9.41D-03 DXMaxT set to 3.00D-01
 ITU=  1  1  0
     Eigenvalues ---    0.00280   0.05450   0.05450   0.05450   0.05450
     Eigenvalues ---    0.14845   0.16000   0.16000   0.16000   0.16000
     Eigenvalues ---    0.16000   0.31073   0.34024   0.34549   0.34549
     Eigenvalues ---    0.34549   0.34549   0.34549
 En-DIIS/RFO-DIIS IScMMF=        0 using points:     3    2
 RFO step:  Lambda=-7.30467614D-07.
 DidBck=F Rises=F RFO-DIIS coefs:    1.11604   -0.11604
 Iteration  1 RMS(Cart)=  0.00040347 RMS(Int)=  0.00000030
 Iteration  2 RMS(Cart)=  0.00000034 RMS(Int)=  0.00000016
 ClnCor:  largest displacement from symmetrization is 7.84D-09 for atom     8.
 Variable       Old X    -DE/DX   Delta X   Delta X   Delta X     New X
                                 (Linear)    (Quad)   (Total)
    R1        2.91892  -0.00045  -0.00104  -0.00097  -0.00202   2.91690
    R2        2.07485  -0.00006   0.00010  -0.00018  -0.00008   2.07477
    R3        2.07490  -0.00006   0.00009  -0.00018  -0.00008   2.07482
    R4        2.07490  -0.00006   0.00010  -0.00018  -0.00008   2.07482
    R5        2.07490  -0.00006   0.00010  -0.00018  -0.00008   2.07482
    R6        2.07490  -0.00006   0.00009  -0.00018  -0.00008   2.07482
    R7        2.07485  -0.00006   0.00010  -0.00018  -0.00008   2.07477
    A1        1.93884   0.00009  -0.00006   0.00074   0.00068   1.93952
    A2        1.93879   0.00009  -0.00006   0.00075   0.00068   1.93947
    A3        1.93882   0.00009  -0.00006   0.00074   0.00068   1.93950
    A4        1.88166  -0.00009   0.00007  -0.00079  -0.00072   1.88094
    A5        1.88165  -0.00009   0.00007  -0.00079  -0.00072   1.88093
    A6        1.88157  -0.00009   0.00007  -0.00078  -0.00072   1.88085
    A7        1.93882   0.00009  -0.00006   0.00074   0.00068   1.93950
    A8        1.93879   0.00009  -0.00006   0.00075   0.00068   1.93947
    A9        1.93884   0.00009  -0.00006   0.00074   0.00068   1.93952
   A10        1.88157  -0.00009   0.00007  -0.00078  -0.00072   1.88085
   A11        1.88165  -0.00009   0.00007  -0.00079  -0.00072   1.88093
   A12        1.88166  -0.00009   0.00007  -0.00079  -0.00072   1.88094
    D1        1.04715   0.00000   0.00000   0.00000   0.00000   1.04716
    D2       -1.04715   0.00000   0.00000   0.00000   0.00000  -1.04715
    D3        3.14159   0.00000   0.00000   0.00000   0.00000   3.14159
    D4       -1.04729   0.00000   0.00000   0.00000   0.00000  -1.04729
    D5        3.14159   0.00000   0.00000   0.00000   0.00000   3.14159
    D6        1.04715   0.00000   0.00000   0.00000   0.00000   1.04715
    D7        3.14159   0.00000   0.00000   0.00000   0.00000   3.14159
    D8        1.04729   0.00000   0.00000   0.00000   0.00000   1.04729
    D9       -1.04715   0.00000   0.00000   0.00000   0.00000  -1.04716
         Item               Value     Threshold  Converged?
 Maximum Force            0.000452     0.000450     NO 
 RMS     Force            0.000107     0.000300     YES
 Maximum Displacement     0.000852     0.001800     YES
 RMS     Displacement     0.000404     0.001200     YES
 Predicted change in Energy=-8.521845D-07
 GradGradGradGradGradGradGradGradGradGradGradGradGradGradGradGradGradGrad

                          Input orientation:                          
 ---------------------------------------------------------------------
 Center     Atomic      Atomic             Coordinates (Angstroms)
 Number     Number       Type             X           Y           Z
 ---------------------------------------------------------------------
      1          6           0       -1.771686    1.607958    0.000014
      2          6           0       -0.946494    0.303492   -0.000014
      3          1           0       -2.712839    1.480834    0.550923
      4          1           0       -2.021581    1.918101   -1.023141
      5          1           0       -1.215187    2.428217    0.472216
      6          1           0       -1.502993   -0.516767   -0.472216
      7          1           0       -0.696599   -0.006651    1.023141
      8          1           0       -0.005341    0.430616   -0.550923
 ---------------------------------------------------------------------
                    Distance matrix (angstroms):
                    1          2          3          4          5
     1  C    0.000000
     2  C    1.543558   0.000000
     3  H    1.097921   2.193090   0.000000
     4  H    1.097945   2.193072   1.773900   0.000000
     5  H    1.097948   2.193092   1.773891   1.773861   0.000000
     6  H    2.193092   1.097948   2.549697   2.549712   3.106076
     7  H    2.193072   1.097945   2.549672   3.106046   2.549712
     8  H    2.193090   1.097921   3.106055   2.549672   2.549697
                    6          7          8
     6  H    0.000000
     7  H    1.773861   0.000000
     8  H    1.773891   1.773900   0.000000
 Stoichiometry    C2H6
 Framework group  CI[X(C2H6)]
 Deg. of freedom     9
 Full point group                 CI      NOp   2
 Largest Abelian subgroup         CI      NOp   2
 Largest concise Abelian subgroup CI      NOp   2
                         Standard orientation:                         
 ---------------------------------------------------------------------
 Center     Atomic      Atomic             Coordinates (Angstroms)
 Number     Number       Type             X           Y           Z
 ---------------------------------------------------------------------
      1          6           0       -0.412596    0.652233    0.000014
      2          6           0        0.412596   -0.652233   -0.000014
      3          1           0       -1.353749    0.525109    0.550923
      4          1           0       -0.662491    0.962376   -1.023141
      5          1           0        0.143903    1.472492    0.472216
      6          1           0       -0.143903   -1.472492   -0.472216
      7          1           0        0.662491   -0.962376    1.023141
      8          1           0        1.353749   -0.525109   -0.550923
 ---------------------------------------------------------------------
 Rotational constants (GHZ):     79.6804349     19.6578930     19.6577637
 Standard basis: LANL2DZ (5D, 7F)
 There are    15 symmetry adapted cartesian basis functions of AG  symmetry.
 There are    15 symmetry adapted cartesian basis functions of AU  symmetry.
 There are    15 symmetry adapted basis functions of AG  symmetry.
 There are    15 symmetry adapted basis functions of AU  symmetry.
    30 basis functions,    74 primitive gaussians,    30 cartesian basis functions
     9 alpha electrons        9 beta electrons
       nuclear repulsion energy        41.9257523291 Hartrees.
 NAtoms=    8 NActive=    8 NUniq=    4 SFac= 4.00D+00 NAtFMM=   60 NAOKFM=F Big=F
 Integral buffers will be    131072 words long.
 Raffenetti 2 integral format.
 Two-electron integral symmetry is turned on.
 One-electron integrals computed using PRISM.
   2 Symmetry operations used in ECPInt.
 ECPInt:  NShTT=     253 NPrTT=    1559 LenC2=     254 LenP2D=    1400.
 LDataN:  DoStor=T MaxTD1= 2 Len=   12
 NBasis=    30 RedAO= T EigKep=  6.60D-03  NBF=    15    15
 NBsUse=    30 1.00D-06 EigRej= -1.00D+00 NBFU=    15    15
 Initial guess from the checkpoint file:  "/scr/Gau-11515.chk"
 B after Tr=     0.000000    0.000000    0.000000
         Rot=    1.000000    0.000000    0.000000    0.000000 Ang=   0.00 deg.
 Initial guess orbital symmetries:
       Occupied  (AG) (AU) (AG) (AU) (AU) (AU) (AG) (AG) (AG)
       Virtual   (AG) (AG) (AG) (AG) (AG) (AG) (AG) (AG) (AG) (AG)
                 (AU) (AU) (AU) (AU) (AU) (AU) (AU) (AU) (AU) (AU)
                 (AU)
 Keep R1 ints in memory in symmetry-blocked form, NReq=991481.
 Requested convergence on RMS density matrix=1.00D-08 within 128 cycles.
 Requested convergence on MAX density matrix=1.00D-06.
 Requested convergence on             energy=1.00D-06.
 No special actions if energy rises.
 SCF Done:  E(RB3LYP) =  -79.8188756096     A.U. after    5 cycles
            NFock=  5  Conv=0.80D-08     -V/T= 2.0073
   2 Symmetry operations used in ECPInt.
 ECPInt:  NShTT=     253 NPrTT=    1559 LenC2=     254 LenP2D=    1400.
 LDataN:  DoStor=T MaxTD1= 3 Len=   28
 Calling FoFJK, ICntrl=      2127 FMM=F ISym2X=1 I1Cent= 0 IOpClX= 0 NMat=1 NMatS=1 NMatT=0.
 ***** Axes restored to original set *****
 -------------------------------------------------------------------
 Center     Atomic                   Forces (Hartrees/Bohr)
 Number     Number              X              Y              Z
 -------------------------------------------------------------------
      1        6           0.000038596   -0.000063640    0.000000309
      2        6          -0.000038596    0.000063640   -0.000000309
      3        1          -0.000001303    0.000020211   -0.000005164
      4        1          -0.000014755    0.000015372    0.000015438
      5        1          -0.000024553    0.000010644   -0.000007044
      6        1           0.000024553   -0.000010644    0.000007044
      7        1           0.000014755   -0.000015372   -0.000015438
      8        1           0.000001303   -0.000020211    0.000005164
 -------------------------------------------------------------------
 Cartesian Forces:  Max     0.000063640 RMS     0.000024891

 GradGradGradGradGradGradGradGradGradGradGradGradGradGradGradGradGradGrad
 Berny optimization.
 Using GEDIIS/GDIIS optimizer.
 FormGI is forming the generalized inverse of G from B-inverse, IUseBI=4.
 Internal  Forces:  Max     0.000024978 RMS     0.000016299
 Search for a local minimum.
 Step number   4 out of a maximum of   38
 All quantities printed in internal units (Hartrees-Bohrs-Radians)
 Mixed Optimization -- En-DIIS/RFO-DIIS
 Swapping is turned off.
 Update second derivatives using D2CorX and points    1    2    3    4
 DE= -9.70D-07 DEPred=-8.52D-07 R= 1.14D+00
 Trust test= 1.14D+00 RLast= 3.16D-03 DXMaxT set to 3.00D-01
 ITU=  0  1  1  0
     Eigenvalues ---    0.00280   0.05442   0.05442   0.05443   0.05443
     Eigenvalues ---    0.12174   0.16000   0.16000   0.16000   0.16000
     Eigenvalues ---    0.16000   0.32212   0.34549   0.34549   0.34549
     Eigenvalues ---    0.34549   0.34549   0.35540
 En-DIIS/RFO-DIIS IScMMF=        0 using points:     4    3    2
 RFO step:  Lambda=-2.04200582D-08.
 DidBck=F Rises=F RFO-DIIS coefs:    1.22164   -0.25073    0.02909
 Iteration  1 RMS(Cart)=  0.00013992 RMS(Int)=  0.00000005
 Iteration  2 RMS(Cart)=  0.00000002 RMS(Int)=  0.00000005
 ClnCor:  largest displacement from symmetrization is 5.59D-11 for atom     6.
 Variable       Old X    -DE/DX   Delta X   Delta X   Delta X     New X
                                 (Linear)    (Quad)   (Total)
    R1        2.91690  -0.00001  -0.00019   0.00000  -0.00018   2.91672
    R2        2.07477  -0.00001  -0.00004   0.00004   0.00000   2.07477
    R3        2.07482  -0.00001  -0.00004   0.00004   0.00000   2.07481
    R4        2.07482  -0.00001  -0.00004   0.00004   0.00000   2.07482
    R5        2.07482  -0.00001  -0.00004   0.00004   0.00000   2.07482
    R6        2.07482  -0.00001  -0.00004   0.00004   0.00000   2.07481
    R7        2.07477  -0.00001  -0.00004   0.00004   0.00000   2.07477
    A1        1.93952   0.00002   0.00017   0.00002   0.00018   1.93971
    A2        1.93947   0.00002   0.00017   0.00002   0.00018   1.93966
    A3        1.93950   0.00002   0.00017   0.00002   0.00018   1.93968
    A4        1.88094  -0.00002  -0.00018  -0.00002  -0.00020   1.88075
    A5        1.88093  -0.00002  -0.00018  -0.00002  -0.00019   1.88073
    A6        1.88085  -0.00002  -0.00018  -0.00002  -0.00019   1.88066
    A7        1.93950   0.00002   0.00017   0.00002   0.00018   1.93968
    A8        1.93947   0.00002   0.00017   0.00002   0.00018   1.93966
    A9        1.93952   0.00002   0.00017   0.00002   0.00018   1.93971
   A10        1.88085  -0.00002  -0.00018  -0.00002  -0.00019   1.88066
   A11        1.88093  -0.00002  -0.00018  -0.00002  -0.00019   1.88073
   A12        1.88094  -0.00002  -0.00018  -0.00002  -0.00020   1.88075
    D1        1.04716   0.00000   0.00000   0.00000   0.00000   1.04716
    D2       -1.04715   0.00000   0.00000   0.00000   0.00000  -1.04715
    D3        3.14159   0.00000   0.00000   0.00000   0.00000   3.14159
    D4       -1.04729   0.00000   0.00000   0.00000   0.00000  -1.04728
    D5        3.14159   0.00000   0.00000   0.00000   0.00000   3.14159
    D6        1.04715   0.00000   0.00000   0.00000   0.00000   1.04715
    D7        3.14159   0.00000   0.00000   0.00000   0.00000   3.14159
    D8        1.04729   0.00000   0.00000   0.00000   0.00000   1.04728
    D9       -1.04716   0.00000   0.00000   0.00000   0.00000  -1.04716
         Item               Value     Threshold  Converged?
 Maximum Force            0.000025     0.000450     YES
 RMS     Force            0.000016     0.000300     YES
 Maximum Displacement     0.000287     0.001800     YES
 RMS     Displacement     0.000140     0.001200     YES
 Predicted change in Energy=-2.847403D-08
 Optimization completed.
    -- Stationary point found.
                           ----------------------------
                           !   Optimized Parameters   !
                           ! (Angstroms and Degrees)  !
 --------------------------                            --------------------------
 ! Name  Definition              Value          Derivative Info.                !
 --------------------------------------------------------------------------------
 ! R1    R(1,2)                  1.5436         -DE/DX =    0.0                 !
 ! R2    R(1,3)                  1.0979         -DE/DX =    0.0                 !
 ! R3    R(1,4)                  1.0979         -DE/DX =    0.0                 !
 ! R4    R(1,5)                  1.0979         -DE/DX =    0.0                 !
 ! R5    R(2,6)                  1.0979         -DE/DX =    0.0                 !
 ! R6    R(2,7)                  1.0979         -DE/DX =    0.0                 !
 ! R7    R(2,8)                  1.0979         -DE/DX =    0.0                 !
 ! A1    A(2,1,3)              111.1265         -DE/DX =    0.0                 !
 ! A2    A(2,1,4)              111.1236         -DE/DX =    0.0                 !
 ! A3    A(2,1,5)              111.1251         -DE/DX =    0.0                 !
 ! A4    A(3,1,4)              107.77           -DE/DX =    0.0                 !
 ! A5    A(3,1,5)              107.7691         -DE/DX =    0.0                 !
 ! A6    A(4,1,5)              107.7647         -DE/DX =    0.0                 !
 ! A7    A(1,2,6)              111.1251         -DE/DX =    0.0                 !
 ! A8    A(1,2,7)              111.1236         -DE/DX =    0.0                 !
 ! A9    A(1,2,8)              111.1265         -DE/DX =    0.0                 !
 ! A10   A(6,2,7)              107.7647         -DE/DX =    0.0                 !
 ! A11   A(6,2,8)              107.7691         -DE/DX =    0.0                 !
 ! A12   A(7,2,8)              107.77           -DE/DX =    0.0                 !
 ! D1    D(3,1,2,6)             59.9976         -DE/DX =    0.0                 !
 ! D2    D(3,1,2,7)            -59.9974         -DE/DX =    0.0                 !
 ! D3    D(3,1,2,8)            180.0            -DE/DX =    0.0                 !
 ! D4    D(4,1,2,6)            -60.005          -DE/DX =    0.0                 !
 ! D5    D(4,1,2,7)            180.0            -DE/DX =    0.0                 !
 ! D6    D(4,1,2,8)             59.9974         -DE/DX =    0.0                 !
 ! D7    D(5,1,2,6)            180.0            -DE/DX =    0.0                 !
 ! D8    D(5,1,2,7)             60.005          -DE/DX =    0.0                 !
 ! D9    D(5,1,2,8)            -59.9976         -DE/DX =    0.0                 !
 --------------------------------------------------------------------------------
 GradGradGradGradGradGradGradGradGradGradGradGradGradGradGradGradGradGrad

                          Input orientation:                          
 ---------------------------------------------------------------------
 Center     Atomic      Atomic             Coordinates (Angstroms)
 Number     Number       Type             X           Y           Z
 ---------------------------------------------------------------------
      1          6           0       -1.771686    1.607958    0.000014
      2          6           0       -0.946494    0.303492   -0.000014
      3          1           0       -2.712839    1.480834    0.550923
      4          1           0       -2.021581    1.918101   -1.023141
      5          1           0       -1.215187    2.428217    0.472216
      6          1           0       -1.502993   -0.516767   -0.472216
      7          1           0       -0.696599   -0.006651    1.023141
      8          1           0       -0.005341    0.430616   -0.550923
 ---------------------------------------------------------------------
                    Distance matrix (angstroms):
                    1          2          3          4          5
     1  C    0.000000
     2  C    1.543558   0.000000
     3  H    1.097921   2.193090   0.000000
     4  H    1.097945   2.193072   1.773900   0.000000
     5  H    1.097948   2.193092   1.773891   1.773861   0.000000
     6  H    2.193092   1.097948   2.549697   2.549712   3.106076
     7  H    2.193072   1.097945   2.549672   3.106046   2.549712
     8  H    2.193090   1.097921   3.106055   2.549672   2.549697
                    6          7          8
     6  H    0.000000
     7  H    1.773861   0.000000
     8  H    1.773891   1.773900   0.000000
 Stoichiometry    C2H6
 Framework group  CI[X(C2H6)]
 Deg. of freedom     9
 Full point group                 CI      NOp   2
 Largest Abelian subgroup         CI      NOp   2
 Largest concise Abelian subgroup CI      NOp   2
                         Standard orientation:                         
 ---------------------------------------------------------------------
 Center     Atomic      Atomic             Coordinates (Angstroms)
 Number     Number       Type             X           Y           Z
 ---------------------------------------------------------------------
      1          6           0       -0.412596    0.652233    0.000014
      2          6           0        0.412596   -0.652233   -0.000014
      3          1           0       -1.353749    0.525109    0.550923
      4          1           0       -0.662491    0.962376   -1.023141
      5          1           0        0.143903    1.472492    0.472216
      6          1           0       -0.143903   -1.472492   -0.472216
      7          1           0        0.662491   -0.962376    1.023141
      8          1           0        1.353749   -0.525109   -0.550923
 ---------------------------------------------------------------------
 Rotational constants (GHZ):     79.6804349     19.6578930     19.6577637

 **********************************************************************

            Population analysis using the SCF density.

 **********************************************************************

 Orbital symmetries:
       Occupied  (AG) (AU) (AG) (AU) (AU) (AU) (AG) (AG) (AG)
       Virtual   (AU) (AG) (AG) (AG) (AU) (AU) (AU) (AG) (AU) (AU)
                 (AG) (AG) (AU) (AG) (AU) (AG) (AU) (AU) (AG) (AG)
                 (AU)
 The electronic state is 1-AG.
 Alpha  occ. eigenvalues --  -10.17091 -10.17073  -0.74566  -0.61257  -0.42905
 Alpha  occ. eigenvalues --   -0.42903  -0.36056  -0.33924  -0.33923
 Alpha virt. eigenvalues --    0.12579   0.13515   0.19581   0.19583   0.21660
 Alpha virt. eigenvalues --    0.21662   0.24032   0.29174   0.29258   0.29259
 Alpha virt. eigenvalues --    0.32903   0.32904   0.48550   0.91744   1.03747
 Alpha virt. eigenvalues --    1.09197   1.11753   1.11756   1.13296   1.13300
 Alpha virt. eigenvalues --    1.36095
          Condensed to atoms (all electrons):
               1          2          3          4          5          6
     1  C    5.250612   0.307646   0.382386   0.382385   0.382386  -0.038460
     2  C    0.307646   5.250612  -0.038459  -0.038463  -0.038460   0.382386
     3  H    0.382386  -0.038459   0.505966  -0.022351  -0.022353  -0.002396
     4  H    0.382385  -0.038463  -0.022351   0.505985  -0.022357  -0.002397
     5  H    0.382386  -0.038460  -0.022353  -0.022357   0.505980   0.002919
     6  H   -0.038460   0.382386  -0.002396  -0.002397   0.002919   0.505980
     7  H   -0.038463   0.382385  -0.002396   0.002919  -0.002397  -0.022357
     8  H   -0.038459   0.382386   0.002919  -0.002396  -0.002396  -0.022353
               7          8
     1  C   -0.038463  -0.038459
     2  C    0.382385   0.382386
     3  H   -0.002396   0.002919
     4  H    0.002919  -0.002396
     5  H   -0.002397  -0.002396
     6  H   -0.022357  -0.022353
     7  H    0.505985  -0.022351
     8  H   -0.022351   0.505966
 Mulliken charges:
               1
     1  C   -0.590034
     2  C   -0.590034
     3  H    0.196683
     4  H    0.196674
     5  H    0.196677
     6  H    0.196677
     7  H    0.196674
     8  H    0.196683
 Sum of Mulliken charges =   0.00000
 Mulliken charges with hydrogens summed into heavy atoms:
               1
     1  C    0.000000
     2  C    0.000000
 Electronic spatial extent (au):  <R**2>=            110.0513
 Charge=              0.0000 electrons
 Dipole moment (field-independent basis, Debye):
    X=              0.0000    Y=              0.0000    Z=              0.0000  Tot=              0.0000
 Quadrupole moment (field-independent basis, Debye-Ang):
   XX=            -14.7036   YY=            -14.9163   ZZ=            -14.5618
   XY=              0.2244   XZ=             -0.0002   YZ=             -0.0001
 Traceless Quadrupole moment (field-independent basis, Debye-Ang):
   XX=              0.0236   YY=             -0.1891   ZZ=              0.1655
   XY=              0.2244   XZ=             -0.0002   YZ=             -0.0001
 Octapole moment (field-independent basis, Debye-Ang**2):
  XXX=              0.0000  YYY=              0.0000  ZZZ=              0.0000  XYY=              0.0000
  XXY=              0.0000  XXZ=              0.0000  XZZ=              0.0000  YZZ=              0.0000
  YYZ=              0.0000  XYZ=              0.0000
 Hexadecapole moment (field-independent basis, Debye-Ang**3):
 XXXX=            -45.0101 YYYY=            -72.6269 ZZZZ=            -27.9107 XXXY=             13.8637
 XXXZ=             -1.8150 YYYX=             15.7541 YYYZ=              1.1477 ZZZX=              0.8470
 ZZZY=             -1.3393 XXYY=            -20.4537 XXZZ=            -11.7927 YYZZ=            -16.1951
 XXYZ=              0.1911 YYXZ=              0.9678 ZZXY=              4.1472
 N-N= 4.192575232905D+01 E-N=-2.679253655677D+02  KE= 7.924109961859D+01
 Symmetry AG   KE= 4.113008355303D+01
 Symmetry AU   KE= 3.811101606556D+01
 1\1\GINC-N0299\FOpt\RB3LYP\LANL2DZ\C2H6\TAIYUPAN\23-Feb-2017\0\\#n B3L
 YP/LANL2DZ Opt\\CH3_B3LYP/6-31G(d,p)\\0,1\C,-1.7716857843,1.6079580173
 ,0.0000142211\C,-0.9464942157,0.3034919827,-0.0000142211\H,-2.71283946
 85,1.4808342625,0.550923343\H,-2.0215809576,1.9181009423,-1.0231414201
 \H,-1.2151874655,2.428216517,0.4722159065\H,-1.5029925345,-0.516766517
 ,-0.4722159065\H,-0.6965990424,-0.0066509423,1.0231414201\H,-0.0053405
 315,0.4306157375,-0.550923343\\Version=ES64L-G09RevE.01\State=1-AG\HF=
 -79.8188756\RMSD=8.030e-09\RMSF=2.489e-05\Dipole=0.,0.,0.\Quadrupole=0
 .0175594,-0.1405848,0.1230254,0.1668515,-0.0001448,-0.0000495\PG=CI [X
 (C2H6)]\\@


 UNDER MOST GREENE GRASSE LY MOST GREATE SNAKES.
 -- PROVERBS AND REASONS OF THE YEAR 1585
           AS REPRINTED IN PAISLEY MAGAZINE 1828.
 Job cpu time:       0 days  0 hours  0 minutes 31.3 seconds.
 File lengths (MBytes):  RWF=      5 Int=      0 D2E=      0 Chk=      1 Scr=      1
 Normal termination of Gaussian 09 at Thu Feb 23 18:24:50 2017.
