 Entering Gaussian System, Link 0=g09
 Input=CH3_MX_L.com
 Output=CH3_MX_L.log
 Initial command:
 /sw/contrib/gaussian/g09/E01/g09/l1.exe "/scr/Gau-13220.inp" -scrdir="/scr/"
 Entering Link 1 = /sw/contrib/gaussian/g09/E01/g09/l1.exe PID=     13221.
  
 Copyright (c) 1988,1990,1992,1993,1995,1998,2003,2009,2015,
            Gaussian, Inc.  All Rights Reserved.
  
 This is part of the Gaussian(R) 09 program.  It is based on
 the Gaussian(R) 03 system (copyright 2003, Gaussian, Inc.),
 the Gaussian(R) 98 system (copyright 1998, Gaussian, Inc.),
 the Gaussian(R) 94 system (copyright 1995, Gaussian, Inc.),
 the Gaussian 92(TM) system (copyright 1992, Gaussian, Inc.),
 the Gaussian 90(TM) system (copyright 1990, Gaussian, Inc.),
 the Gaussian 88(TM) system (copyright 1988, Gaussian, Inc.),
 the Gaussian 86(TM) system (copyright 1986, Carnegie Mellon
 University), and the Gaussian 82(TM) system (copyright 1983,
 Carnegie Mellon University). Gaussian is a federally registered
 trademark of Gaussian, Inc.
  
 This software contains proprietary and confidential information,
 including trade secrets, belonging to Gaussian, Inc.
  
 This software is provided under written license and may be
 used, copied, transmitted, or stored only in accord with that
 written license.
  
 The following legend is applicable only to US Government
 contracts under FAR:
  
                    RESTRICTED RIGHTS LEGEND
  
 Use, reproduction and disclosure by the US Government is
 subject to restrictions as set forth in subparagraphs (a)
 and (c) of the Commercial Computer Software - Restricted
 Rights clause in FAR 52.227-19.
  
 Gaussian, Inc.
 340 Quinnipiac St., Bldg. 40, Wallingford CT 06492
  
  
 ---------------------------------------------------------------
 Warning -- This program may not be used in any manner that
 competes with the business of Gaussian, Inc. or will provide
 assistance to any competitor of Gaussian, Inc.  The licensee
 of this program is prohibited from giving any competitor of
 Gaussian, Inc. access to this program.  By using this program,
 the user acknowledges that Gaussian, Inc. is engaged in the
 business of creating and licensing software in the field of
 computational chemistry and represents and warrants to the
 licensee that it is not a competitor of Gaussian, Inc. and that
 it will not use this program in any manner prohibited above.
 ---------------------------------------------------------------
  

 Cite this work as:
 Gaussian 09, Revision E.01,
 M. J. Frisch, G. W. Trucks, H. B. Schlegel, G. E. Scuseria, 
 M. A. Robb, J. R. Cheeseman, G. Scalmani, V. Barone, B. Mennucci, 
 G. A. Petersson, H. Nakatsuji, M. Caricato, X. Li, H. P. Hratchian, 
 A. F. Izmaylov, J. Bloino, G. Zheng, J. L. Sonnenberg, M. Hada, 
 M. Ehara, K. Toyota, R. Fukuda, J. Hasegawa, M. Ishida, T. Nakajima, 
 Y. Honda, O. Kitao, H. Nakai, T. Vreven, J. A. Montgomery, Jr., 
 J. E. Peralta, F. Ogliaro, M. Bearpark, J. J. Heyd, E. Brothers, 
 K. N. Kudin, V. N. Staroverov, T. Keith, R. Kobayashi, J. Normand, 
 K. Raghavachari, A. Rendell, J. C. Burant, S. S. Iyengar, J. Tomasi, 
 M. Cossi, N. Rega, J. M. Millam, M. Klene, J. E. Knox, J. B. Cross, 
 V. Bakken, C. Adamo, J. Jaramillo, R. Gomperts, R. E. Stratmann, 
 O. Yazyev, A. J. Austin, R. Cammi, C. Pomelli, J. W. Ochterski, 
 R. L. Martin, K. Morokuma, V. G. Zakrzewski, G. A. Voth, 
 P. Salvador, J. J. Dannenberg, S. Dapprich, A. D. Daniels, 
 O. Farkas, J. B. Foresman, J. V. Ortiz, J. Cioslowski, 
 and D. J. Fox, Gaussian, Inc., Wallingford CT, 2013.
 
 ******************************************
 Gaussian 09:  ES64L-G09RevE.01 30-Nov-2015
                23-Feb-2017 
 ******************************************
 %NProcShared=8
 Will use up to    8 processors via shared memory.
 --------------------
 #n M062X/LANL2DZ Opt
 --------------------
 1/14=-1,18=20,19=15,26=3,38=1/1,3;
 2/9=110,12=2,17=6,18=5,40=1/2;
 3/5=6,6=3,11=2,16=1,25=1,30=1,71=1,74=-55/1,2,3;
 4//1;
 5/5=2,38=5/2;
 6/7=2,8=2,9=2,10=2,28=1/1;
 7//1,2,3,16;
 1/14=-1,18=20,19=15,26=3/3(2);
 2/9=110/2;
 99//99;
 2/9=110/2;
 3/5=6,6=3,11=2,16=1,25=1,30=1,71=1,74=-55/1,2,3;
 4/5=5,16=3,69=1/1;
 5/5=2,38=5/2;
 7//1,2,3,16;
 1/14=-1,18=20,19=15,26=3/3(-5);
 2/9=110/2;
 6/7=2,8=2,9=2,10=2,19=2,28=1/1;
 99/9=1/99;
 --------------------
 CH3_M062X/6-31G(d,p)
 --------------------
 Symbolic Z-matrix:
 Charge =  0 Multiplicity = 1
 C                    -1.76985   1.60508   0. 
 C                    -0.94833   0.30637   0. 
 H                    -2.70278   1.46556   0.5507 
 H                    -2.01181   1.90264  -1.02275 
 H                    -1.2057    2.41255   0.47205 
 H                    -1.51248  -0.5011   -0.47205 
 H                    -0.70637   0.00881   1.02275 
 H                    -0.0154    0.44589  -0.5507 
 

 GradGradGradGradGradGradGradGradGradGradGradGradGradGradGradGradGradGrad
 Berny optimization.
 Initialization pass.
                           ----------------------------
                           !    Initial Parameters    !
                           ! (Angstroms and Degrees)  !
 --------------------------                            --------------------------
 ! Name  Definition              Value          Derivative Info.                !
 --------------------------------------------------------------------------------
 ! R1    R(1,2)                  1.5367         estimate D2E/DX2                !
 ! R2    R(1,3)                  1.0923         estimate D2E/DX2                !
 ! R3    R(1,4)                  1.0923         estimate D2E/DX2                !
 ! R4    R(1,5)                  1.0923         estimate D2E/DX2                !
 ! R5    R(2,6)                  1.0923         estimate D2E/DX2                !
 ! R6    R(2,7)                  1.0923         estimate D2E/DX2                !
 ! R7    R(2,8)                  1.0923         estimate D2E/DX2                !
 ! A1    A(2,1,3)              110.4046         estimate D2E/DX2                !
 ! A2    A(2,1,4)              110.4044         estimate D2E/DX2                !
 ! A3    A(2,1,5)              110.404          estimate D2E/DX2                !
 ! A4    A(3,1,4)              108.5221         estimate D2E/DX2                !
 ! A5    A(3,1,5)              108.5221         estimate D2E/DX2                !
 ! A6    A(4,1,5)              108.5224         estimate D2E/DX2                !
 ! A7    A(1,2,6)              110.404          estimate D2E/DX2                !
 ! A8    A(1,2,7)              110.4044         estimate D2E/DX2                !
 ! A9    A(1,2,8)              110.4046         estimate D2E/DX2                !
 ! A10   A(6,2,7)              108.5224         estimate D2E/DX2                !
 ! A11   A(6,2,8)              108.5221         estimate D2E/DX2                !
 ! A12   A(7,2,8)              108.5221         estimate D2E/DX2                !
 ! D1    D(3,1,2,6)             60.0001         estimate D2E/DX2                !
 ! D2    D(3,1,2,7)            -59.9999         estimate D2E/DX2                !
 ! D3    D(3,1,2,8)            180.0            estimate D2E/DX2                !
 ! D4    D(4,1,2,6)            -59.9999         estimate D2E/DX2                !
 ! D5    D(4,1,2,7)            180.0            estimate D2E/DX2                !
 ! D6    D(4,1,2,8)             59.9999         estimate D2E/DX2                !
 ! D7    D(5,1,2,6)           -180.0            estimate D2E/DX2                !
 ! D8    D(5,1,2,7)             59.9999         estimate D2E/DX2                !
 ! D9    D(5,1,2,8)            -60.0001         estimate D2E/DX2                !
 --------------------------------------------------------------------------------
 Trust Radius=3.00D-01 FncErr=1.00D-07 GrdErr=1.00D-06
 Number of steps in this run=     38 maximum allowed number of steps=    100.
 GradGradGradGradGradGradGradGradGradGradGradGradGradGradGradGradGradGrad

                          Input orientation:                          
 ---------------------------------------------------------------------
 Center     Atomic      Atomic             Coordinates (Angstroms)
 Number     Number       Type             X           Y           Z
 ---------------------------------------------------------------------
      1          6           0       -1.769850    1.605080    0.000000
      2          6           0       -0.948330    0.306370    0.000000
      3          1           0       -2.702780    1.465560    0.550700
      4          1           0       -2.011810    1.902640   -1.022750
      5          1           0       -1.205700    2.412550    0.472050
      6          1           0       -1.512480   -0.501100   -0.472050
      7          1           0       -0.706370    0.008810    1.022750
      8          1           0       -0.015400    0.445890   -0.550700
 ---------------------------------------------------------------------
                    Distance matrix (angstroms):
                    1          2          3          4          5
     1  C    0.000000
     2  C    1.536731   0.000000
     3  H    1.092289   2.173726   0.000000
     4  H    1.092293   2.173726   1.773196   0.000000
     5  H    1.092293   2.173721   1.773196   1.773203   0.000000
     6  H    2.173721   1.092293   2.516065   2.516062   3.078116
     7  H    2.173726   1.092293   2.516069   3.078122   2.516062
     8  H    2.173726   1.092289   3.078120   2.516069   2.516065
                    6          7          8
     6  H    0.000000
     7  H    1.773203   0.000000
     8  H    1.773196   1.773196   0.000000
 This structure is nearly, but not quite of a higher symmetry.
 Consider Symm=Loose if the higher symmetry is desired.
 Stoichiometry    C2H6
 Framework group  CI[X(C2H6)]
 Deg. of freedom     9
 Full point group                 CI      NOp   2
 Largest Abelian subgroup         CI      NOp   2
 Largest concise Abelian subgroup CI      NOp   2
                         Standard orientation:                         
 ---------------------------------------------------------------------
 Center     Atomic      Atomic             Coordinates (Angstroms)
 Number     Number       Type             X           Y           Z
 ---------------------------------------------------------------------
      1          6           0       -0.410760    0.649355    0.000000
      2          6           0        0.410760   -0.649355    0.000000
      3          1           0       -1.343690    0.509835    0.550700
      4          1           0       -0.652720    0.946915   -1.022750
      5          1           0        0.153390    1.456825    0.472050
      6          1           0       -0.153390   -1.456825   -0.472050
      7          1           0        0.652720   -0.946915    1.022750
      8          1           0        1.343690   -0.509835   -0.550700
 ---------------------------------------------------------------------
 Rotational constants (GHZ):     79.7420612     19.9566490     19.9566228
 Standard basis: LANL2DZ (5D, 7F)
 There are    15 symmetry adapted cartesian basis functions of AG  symmetry.
 There are    15 symmetry adapted cartesian basis functions of AU  symmetry.
 There are    15 symmetry adapted basis functions of AG  symmetry.
 There are    15 symmetry adapted basis functions of AU  symmetry.
    30 basis functions,    74 primitive gaussians,    30 cartesian basis functions
     9 alpha electrons        9 beta electrons
       nuclear repulsion energy        42.1696170358 Hartrees.
 NAtoms=    8 NActive=    8 NUniq=    4 SFac= 4.00D+00 NAtFMM=   60 NAOKFM=F Big=F
 Integral buffers will be    131072 words long.
 Raffenetti 2 integral format.
 Two-electron integral symmetry is turned on.
 One-electron integrals computed using PRISM.
   2 Symmetry operations used in ECPInt.
 ECPInt:  NShTT=     253 NPrTT=    1559 LenC2=     254 LenP2D=    1400.
 LDataN:  DoStor=T MaxTD1= 2 Len=   12
 NBasis=    30 RedAO= T EigKep=  6.44D-03  NBF=    15    15
 NBsUse=    30 1.00D-06 EigRej= -1.00D+00 NBFU=    15    15
 ExpMin= 1.15D-01 ExpMax= 4.23D+03 ExpMxC= 1.46D+02 IAcc=1 IRadAn=         1 AccDes= 0.00D+00
 Harris functional with IExCor= 1009 and IRadAn=       1 diagonalized for initial guess.
 HarFok:  IExCor= 1009 AccDes= 0.00D+00 IRadAn=         1 IDoV= 1 UseB2=F ITyADJ=14
 ICtDFT=  3500011 ScaDFX=  1.000000  1.000000  1.000000  1.000000
 FoFCou: FMM=F IPFlag=           0 FMFlag=      100000 FMFlg1=           0
         NFxFlg=           0 DoJE=T BraDBF=F KetDBF=T FulRan=T
         wScrn=  0.000000 ICntrl=     500 IOpCl=  0 I1Cent=   200000004 NGrid=           0
         NMat0=    1 NMatS0=      1 NMatT0=    0 NMatD0=    1 NMtDS0=    0 NMtDT0=    0
 Petite list used in FoFCou.
 Initial guess orbital symmetries:
       Occupied  (AG) (AU) (AG) (AU) (AU) (AU) (AG) (AG) (AG)
       Virtual   (AU) (AG) (AU) (AU) (AG) (AG) (AU) (AU) (AU) (AG)
                 (AG) (AG) (AU) (AG) (AU) (AG) (AU) (AU) (AG) (AG)
                 (AU)
 The electronic state of the initial guess is 1-AG.
 Keep R1 ints in memory in symmetry-blocked form, NReq=992247.
 Requested convergence on RMS density matrix=1.00D-08 within 128 cycles.
 Requested convergence on MAX density matrix=1.00D-06.
 Requested convergence on             energy=1.00D-06.
 No special actions if energy rises.
 Integral accuracy reduced to 1.0D-05 until final iterations.
 Initial convergence to 1.0D-05 achieved.  Increase integral accuracy.
 SCF Done:  E(RM062X) =  -79.7643405403     A.U. after   11 cycles
            NFock= 11  Conv=0.68D-08     -V/T= 2.0059

 **********************************************************************

            Population analysis using the SCF density.

 **********************************************************************

 Orbital symmetries:
       Occupied  (AG) (AU) (AG) (AU) (AU) (AU) (AG) (AG) (AG)
       Virtual   (AU) (AG) (AG) (AG) (AU) (AU) (AU) (AU) (AU) (AG)
                 (AG) (AG) (AU) (AG) (AU) (AG) (AU) (AU) (AG) (AG)
                 (AU)
 The electronic state is 1-AG.
 Alpha  occ. eigenvalues --  -10.52958 -10.52925  -0.84313  -0.69532  -0.50004
 Alpha  occ. eigenvalues --   -0.50002  -0.41786  -0.40001  -0.39999
 Alpha virt. eigenvalues --    0.17095   0.18067   0.23215   0.23216   0.26797
 Alpha virt. eigenvalues --    0.26798   0.28879   0.33966   0.33968   0.33978
 Alpha virt. eigenvalues --    0.38686   0.38688   0.55567   0.97350   1.10444
 Alpha virt. eigenvalues --    1.15063   1.18515   1.18520   1.21086   1.21092
 Alpha virt. eigenvalues --    1.39659
          Condensed to atoms (all electrons):
               1          2          3          4          5          6
     1  C    5.262180   0.301204   0.385257   0.385246   0.385249  -0.041563
     2  C    0.301204   5.262180  -0.041566  -0.041578  -0.041563   0.385249
     3  H    0.385257  -0.041566   0.502945  -0.021408  -0.021411  -0.002541
     4  H    0.385246  -0.041578  -0.021408   0.502932  -0.021399  -0.002540
     5  H    0.385249  -0.041563  -0.021411  -0.021399   0.502921   0.003135
     6  H   -0.041563   0.385249  -0.002541  -0.002540   0.003135   0.502921
     7  H   -0.041578   0.385246  -0.002540   0.003135  -0.002540  -0.021399
     8  H   -0.041566   0.385257   0.003135  -0.002540  -0.002541  -0.021411
               7          8
     1  C   -0.041578  -0.041566
     2  C    0.385246   0.385257
     3  H   -0.002540   0.003135
     4  H    0.003135  -0.002540
     5  H   -0.002540  -0.002541
     6  H   -0.021399  -0.021411
     7  H    0.502932  -0.021408
     8  H   -0.021408   0.502945
 Mulliken charges:
               1
     1  C   -0.594429
     2  C   -0.594429
     3  H    0.198129
     4  H    0.198151
     5  H    0.198149
     6  H    0.198149
     7  H    0.198151
     8  H    0.198129
 Sum of Mulliken charges =   0.00000
 Mulliken charges with hydrogens summed into heavy atoms:
               1
     1  C    0.000000
     2  C    0.000000
 Electronic spatial extent (au):  <R**2>=            109.1852
 Charge=              0.0000 electrons
 Dipole moment (field-independent basis, Debye):
    X=              0.0000    Y=              0.0000    Z=              0.0000  Tot=              0.0000
 Quadrupole moment (field-independent basis, Debye-Ang):
   XX=            -14.8206   YY=            -15.1312   ZZ=            -14.6128
   XY=              0.3278   XZ=              0.0002   YZ=              0.0001
 Traceless Quadrupole moment (field-independent basis, Debye-Ang):
   XX=              0.0343   YY=             -0.2763   ZZ=              0.2421
   XY=              0.3278   XZ=              0.0002   YZ=              0.0001
 Octapole moment (field-independent basis, Debye-Ang**2):
  XXX=              0.0000  YYY=              0.0000  ZZZ=              0.0000  XYY=              0.0000
  XXY=              0.0000  XXZ=              0.0000  XZZ=              0.0000  YZZ=              0.0000
  YYZ=              0.0000  XYZ=              0.0000
 Hexadecapole moment (field-independent basis, Debye-Ang**3):
 XXXX=            -45.0718 YYYY=            -72.5263 ZZZZ=            -28.0441 XXXY=             13.7959
 XXXZ=             -1.7865 YYYX=             15.6438 YYYZ=              1.1309 ZZZX=              0.8344
 ZZZY=             -1.3184 XXYY=            -20.4267 XXZZ=            -11.8316 YYZZ=            -16.2147
 XXYZ=              0.1880 YYXZ=              0.9532 ZZXY=              4.1347
 N-N= 4.216961703580D+01 E-N=-2.683747893701D+02  KE= 7.929783117827D+01
 Symmetry AG   KE= 4.116258232996D+01
 Symmetry AU   KE= 3.813524884831D+01
   2 Symmetry operations used in ECPInt.
 ECPInt:  NShTT=     253 NPrTT=    1559 LenC2=     254 LenP2D=    1400.
 LDataN:  DoStor=T MaxTD1= 3 Len=   28
 Calling FoFJK, ICntrl=      2127 FMM=F ISym2X=1 I1Cent= 0 IOpClX= 0 NMat=1 NMatS=1 NMatT=0.
 ***** Axes restored to original set *****
 -------------------------------------------------------------------
 Center     Atomic                   Forces (Hartrees/Bohr)
 Number     Number              X              Y              Z
 -------------------------------------------------------------------
      1        6           0.001537682   -0.002382346    0.000022641
      2        6          -0.001537682    0.002382346   -0.000022641
      3        1          -0.001680102    0.001475968    0.000379599
      4        1          -0.001194850    0.001770375   -0.000779951
      5        1          -0.000599286    0.002190879    0.000383035
      6        1           0.000599286   -0.002190879   -0.000383035
      7        1           0.001194850   -0.001770375    0.000779951
      8        1           0.001680102   -0.001475968   -0.000379599
 -------------------------------------------------------------------
 Cartesian Forces:  Max     0.002382346 RMS     0.001404217

 GradGradGradGradGradGradGradGradGradGradGradGradGradGradGradGradGradGrad
 Berny optimization.
 FormGI is forming the generalized inverse of G from B-inverse, IUseBI=4.
 Internal  Forces:  Max     0.003616974 RMS     0.001509477
 Search for a local minimum.
 Step number   1 out of a maximum of   38
 All quantities printed in internal units (Hartrees-Bohrs-Radians)
 Mixed Optimization -- RFO/linear search
 Second derivative matrix not updated -- first step.
 ITU=  0
     Eigenvalues ---    0.00280   0.05575   0.05575   0.05575   0.05575
     Eigenvalues ---    0.16000   0.16000   0.16000   0.16000   0.16000
     Eigenvalues ---    0.16000   0.28810   0.34549   0.34549   0.34549
     Eigenvalues ---    0.34549   0.34549   0.34549
 RFO step:  Lambda=-3.18719887D-04 EMin= 2.80064107D-03
 Linear search not attempted -- first point.
 Iteration  1 RMS(Cart)=  0.01350167 RMS(Int)=  0.00006214
 Iteration  2 RMS(Cart)=  0.00004999 RMS(Int)=  0.00003814
 Iteration  3 RMS(Cart)=  0.00000000 RMS(Int)=  0.00003814
 ClnCor:  largest displacement from symmetrization is 5.39D-09 for atom     8.
 Variable       Old X    -DE/DX   Delta X   Delta X   Delta X     New X
                                 (Linear)    (Quad)   (Total)
    R1        2.90400   0.00362   0.00000   0.01254   0.01254   2.91654
    R2        2.06413   0.00144   0.00000   0.00415   0.00415   2.06828
    R3        2.06413   0.00147   0.00000   0.00426   0.00426   2.06840
    R4        2.06413   0.00148   0.00000   0.00428   0.00428   2.06842
    R5        2.06413   0.00148   0.00000   0.00428   0.00428   2.06842
    R6        2.06413   0.00147   0.00000   0.00426   0.00426   2.06840
    R7        2.06413   0.00144   0.00000   0.00415   0.00415   2.06828
    A1        1.92692   0.00175   0.00000   0.01086   0.01080   1.93772
    A2        1.92692   0.00172   0.00000   0.01075   0.01069   1.93761
    A3        1.92691   0.00176   0.00000   0.01108   0.01101   1.93793
    A4        1.89407  -0.00181   0.00000  -0.01142  -0.01147   1.88259
    A5        1.89407  -0.00182   0.00000  -0.01138  -0.01143   1.88264
    A6        1.89407  -0.00179   0.00000  -0.01099  -0.01105   1.88303
    A7        1.92691   0.00176   0.00000   0.01108   0.01101   1.93793
    A8        1.92692   0.00172   0.00000   0.01075   0.01069   1.93761
    A9        1.92692   0.00175   0.00000   0.01086   0.01080   1.93772
   A10        1.89407  -0.00179   0.00000  -0.01099  -0.01105   1.88303
   A11        1.89407  -0.00182   0.00000  -0.01138  -0.01143   1.88264
   A12        1.89407  -0.00181   0.00000  -0.01142  -0.01147   1.88259
    D1        1.04720   0.00000   0.00000   0.00005   0.00005   1.04725
    D2       -1.04720  -0.00002   0.00000  -0.00032  -0.00032  -1.04751
    D3        3.14159   0.00000   0.00000   0.00000   0.00000   3.14159
    D4       -1.04720   0.00002   0.00000   0.00036   0.00036  -1.04683
    D5        3.14159   0.00000   0.00000   0.00000   0.00000   3.14159
    D6        1.04720   0.00002   0.00000   0.00032   0.00032   1.04751
    D7        3.14159   0.00000   0.00000   0.00000   0.00000   3.14159
    D8        1.04720  -0.00002   0.00000  -0.00036  -0.00036   1.04683
    D9       -1.04720   0.00000   0.00000  -0.00005  -0.00005  -1.04725
         Item               Value     Threshold  Converged?
 Maximum Force            0.003617     0.000450     NO 
 RMS     Force            0.001509     0.000300     NO 
 Maximum Displacement     0.026163     0.001800     NO 
 RMS     Displacement     0.013518     0.001200     NO 
 Predicted change in Energy=-1.596346D-04
 GradGradGradGradGradGradGradGradGradGradGradGradGradGradGradGradGradGrad

                          Input orientation:                          
 ---------------------------------------------------------------------
 Center     Atomic      Atomic             Coordinates (Angstroms)
 Number     Number       Type             X           Y           Z
 ---------------------------------------------------------------------
      1          6           0       -1.771555    1.607928    0.000033
      2          6           0       -0.946625    0.303522   -0.000033
      3          1           0       -2.709335    1.479405    0.549532
      4          1           0       -2.019896    1.915387   -1.020668
      5          1           0       -1.215419    2.424469    0.471238
      6          1           0       -1.502761   -0.513019   -0.471238
      7          1           0       -0.698284   -0.003937    1.020668
      8          1           0       -0.008845    0.432045   -0.549532
 ---------------------------------------------------------------------
                    Distance matrix (angstroms):
                    1          2          3          4          5
     1  C    0.000000
     2  C    1.543367   0.000000
     3  H    1.094486   2.189034   0.000000
     4  H    1.094549   2.188999   1.769445   0.000000
     5  H    1.094559   2.189238   1.769481   1.769783   0.000000
     6  H    2.189238   1.094559   2.543137   2.542923   3.098332
     7  H    2.188999   1.094549   2.542951   3.097987   2.542923
     8  H    2.189034   1.094486   3.097992   2.542951   2.543137
                    6          7          8
     6  H    0.000000
     7  H    1.769783   0.000000
     8  H    1.769481   1.769445   0.000000
 Stoichiometry    C2H6
 Framework group  CI[X(C2H6)]
 Deg. of freedom     9
 Full point group                 CI      NOp   2
 Largest Abelian subgroup         CI      NOp   2
 Largest concise Abelian subgroup CI      NOp   2
                         Standard orientation:                         
 ---------------------------------------------------------------------
 Center     Atomic      Atomic             Coordinates (Angstroms)
 Number     Number       Type             X           Y           Z
 ---------------------------------------------------------------------
      1          6           0       -0.412465    0.652203    0.000033
      2          6           0        0.412465   -0.652203   -0.000033
      3          1           0       -1.350245    0.523680    0.549532
      4          1           0       -0.660806    0.959662   -1.020668
      5          1           0        0.143671    1.468744    0.471238
      6          1           0       -0.143671   -1.468744   -0.471238
      7          1           0        0.660806   -0.959662    1.020668
      8          1           0        1.350245   -0.523680   -0.549532
 ---------------------------------------------------------------------
 Rotational constants (GHZ):     80.0694277     19.7065119     19.7053372
 Standard basis: LANL2DZ (5D, 7F)
 There are    15 symmetry adapted cartesian basis functions of AG  symmetry.
 There are    15 symmetry adapted cartesian basis functions of AU  symmetry.
 There are    15 symmetry adapted basis functions of AG  symmetry.
 There are    15 symmetry adapted basis functions of AU  symmetry.
    30 basis functions,    74 primitive gaussians,    30 cartesian basis functions
     9 alpha electrons        9 beta electrons
       nuclear repulsion energy        42.0060893993 Hartrees.
 NAtoms=    8 NActive=    8 NUniq=    4 SFac= 4.00D+00 NAtFMM=   60 NAOKFM=F Big=F
 Integral buffers will be    131072 words long.
 Raffenetti 2 integral format.
 Two-electron integral symmetry is turned on.
 One-electron integrals computed using PRISM.
   2 Symmetry operations used in ECPInt.
 ECPInt:  NShTT=     253 NPrTT=    1559 LenC2=     254 LenP2D=    1400.
 LDataN:  DoStor=T MaxTD1= 2 Len=   12
 NBasis=    30 RedAO= T EigKep=  6.53D-03  NBF=    15    15
 NBsUse=    30 1.00D-06 EigRej= -1.00D+00 NBFU=    15    15
 Initial guess from the checkpoint file:  "/scr/Gau-13221.chk"
 B after Tr=     0.000000    0.000000    0.000000
         Rot=    1.000000   -0.000006   -0.000004    0.000017 Ang=   0.00 deg.
 Initial guess orbital symmetries:
       Occupied  (AG) (AU) (AG) (AU) (AU) (AU) (AG) (AG) (AG)
       Virtual   (AG) (AG) (AG) (AG) (AG) (AG) (AG) (AG) (AG) (AG)
                 (AU) (AU) (AU) (AU) (AU) (AU) (AU) (AU) (AU) (AU)
                 (AU)
 ExpMin= 1.15D-01 ExpMax= 4.23D+03 ExpMxC= 1.46D+02 IAcc=1 IRadAn=         1 AccDes= 0.00D+00
 Harris functional with IExCor= 1009 and IRadAn=       1 diagonalized for initial guess.
 HarFok:  IExCor= 1009 AccDes= 0.00D+00 IRadAn=         1 IDoV= 1 UseB2=F ITyADJ=14
 ICtDFT=  3500011 ScaDFX=  1.000000  1.000000  1.000000  1.000000
 FoFCou: FMM=F IPFlag=           0 FMFlag=      100000 FMFlg1=           0
         NFxFlg=           0 DoJE=T BraDBF=F KetDBF=T FulRan=T
         wScrn=  0.000000 ICntrl=     500 IOpCl=  0 I1Cent=   200000004 NGrid=           0
         NMat0=    1 NMatS0=      1 NMatT0=    0 NMatD0=    1 NMtDS0=    0 NMtDT0=    0
 Petite list used in FoFCou.
 Keep R1 ints in memory in symmetry-blocked form, NReq=992247.
 Requested convergence on RMS density matrix=1.00D-08 within 128 cycles.
 Requested convergence on MAX density matrix=1.00D-06.
 Requested convergence on             energy=1.00D-06.
 No special actions if energy rises.
 Integral accuracy reduced to 1.0D-05 until final iterations.
 Initial convergence to 1.0D-05 achieved.  Increase integral accuracy.
 SCF Done:  E(RM062X) =  -79.7644800478     A.U. after   10 cycles
            NFock= 10  Conv=0.73D-08     -V/T= 2.0063
   2 Symmetry operations used in ECPInt.
 ECPInt:  NShTT=     253 NPrTT=    1559 LenC2=     254 LenP2D=    1400.
 LDataN:  DoStor=T MaxTD1= 3 Len=   28
 Calling FoFJK, ICntrl=      2127 FMM=F ISym2X=1 I1Cent= 0 IOpClX= 0 NMat=1 NMatS=1 NMatT=0.
 ***** Axes restored to original set *****
 -------------------------------------------------------------------
 Center     Atomic                   Forces (Hartrees/Bohr)
 Number     Number              X              Y              Z
 -------------------------------------------------------------------
      1        6           0.001485616   -0.002343068   -0.000032313
      2        6          -0.001485616    0.002343068    0.000032313
      3        1          -0.000166608   -0.000077811    0.000100057
      4        1          -0.000009934   -0.000000005   -0.000187598
      5        1           0.000128760    0.000086829    0.000095741
      6        1          -0.000128760   -0.000086829   -0.000095741
      7        1           0.000009934    0.000000005    0.000187598
      8        1           0.000166608    0.000077811   -0.000100057
 -------------------------------------------------------------------
 Cartesian Forces:  Max     0.002343068 RMS     0.000806767

 GradGradGradGradGradGradGradGradGradGradGradGradGradGradGradGradGradGrad
 Berny optimization.
 Using GEDIIS/GDIIS optimizer.
 FormGI is forming the generalized inverse of G from B-inverse, IUseBI=4.
 Internal  Forces:  Max     0.002741192 RMS     0.000526450
 Search for a local minimum.
 Step number   2 out of a maximum of   38
 All quantities printed in internal units (Hartrees-Bohrs-Radians)
 Mixed Optimization -- En-DIIS/RFO-DIIS
 Update second derivatives using D2CorX and points    1    2
 DE= -1.40D-04 DEPred=-1.60D-04 R= 8.74D-01
 TightC=F SS=  1.41D+00  RLast= 4.17D-02 DXNew= 5.0454D-01 1.2508D-01
 Trust test= 8.74D-01 RLast= 4.17D-02 DXMaxT set to 3.00D-01
 ITU=  1  0
 Use linear search instead of GDIIS.
     Eigenvalues ---    0.00280   0.05460   0.05460   0.05462   0.05462
     Eigenvalues ---    0.14464   0.16000   0.16000   0.16000   0.16000
     Eigenvalues ---    0.16001   0.33026   0.34547   0.34549   0.34549
     Eigenvalues ---    0.34549   0.34549   0.37335
 RFO step:  Lambda=-1.79086499D-05 EMin= 2.80064107D-03
 Quartic linear search produced a step of -0.10716.
 Iteration  1 RMS(Cart)=  0.00180082 RMS(Int)=  0.00000398
 Iteration  2 RMS(Cart)=  0.00000008 RMS(Int)=  0.00000398
 ClnCor:  largest displacement from symmetrization is 1.37D-09 for atom     8.
 Variable       Old X    -DE/DX   Delta X   Delta X   Delta X     New X
                                 (Linear)    (Quad)   (Total)
    R1        2.91654  -0.00274  -0.00134  -0.00646  -0.00780   2.90874
    R2        2.06828   0.00020  -0.00044   0.00120   0.00075   2.06903
    R3        2.06840   0.00017  -0.00046   0.00114   0.00069   2.06908
    R4        2.06842   0.00018  -0.00046   0.00115   0.00069   2.06911
    R5        2.06842   0.00018  -0.00046   0.00115   0.00069   2.06911
    R6        2.06840   0.00017  -0.00046   0.00114   0.00069   2.06908
    R7        2.06828   0.00020  -0.00044   0.00120   0.00075   2.06903
    A1        1.93772  -0.00005  -0.00116   0.00147   0.00032   1.93804
    A2        1.93761  -0.00005  -0.00115   0.00144   0.00030   1.93790
    A3        1.93793  -0.00007  -0.00118   0.00135   0.00018   1.93810
    A4        1.88259   0.00005   0.00123  -0.00154  -0.00030   1.88229
    A5        1.88264   0.00006   0.00123  -0.00155  -0.00032   1.88232
    A6        1.88303   0.00007   0.00118  -0.00140  -0.00021   1.88281
    A7        1.93793  -0.00007  -0.00118   0.00135   0.00018   1.93810
    A8        1.93761  -0.00005  -0.00115   0.00144   0.00030   1.93790
    A9        1.93772  -0.00005  -0.00116   0.00147   0.00032   1.93804
   A10        1.88303   0.00007   0.00118  -0.00140  -0.00021   1.88281
   A11        1.88264   0.00006   0.00123  -0.00155  -0.00032   1.88232
   A12        1.88259   0.00005   0.00123  -0.00154  -0.00030   1.88229
    D1        1.04725   0.00000  -0.00001   0.00008   0.00007   1.04732
    D2       -1.04751   0.00000   0.00003  -0.00001   0.00003  -1.04749
    D3        3.14159   0.00000   0.00000   0.00000   0.00000   3.14159
    D4       -1.04683   0.00000  -0.00004   0.00009   0.00005  -1.04678
    D5        3.14159   0.00000   0.00000   0.00000   0.00000   3.14159
    D6        1.04751   0.00000  -0.00003   0.00001  -0.00003   1.04749
    D7        3.14159   0.00000   0.00000   0.00000   0.00000   3.14159
    D8        1.04683   0.00000   0.00004  -0.00009  -0.00005   1.04678
    D9       -1.04725   0.00000   0.00001  -0.00008  -0.00007  -1.04732
         Item               Value     Threshold  Converged?
 Maximum Force            0.002741     0.000450     NO 
 RMS     Force            0.000526     0.000300     NO 
 Maximum Displacement     0.003317     0.001800     NO 
 RMS     Displacement     0.001801     0.001200     NO 
 Predicted change in Energy=-1.098489D-05
 GradGradGradGradGradGradGradGradGradGradGradGradGradGradGradGradGradGrad

                          Input orientation:                          
 ---------------------------------------------------------------------
 Center     Atomic      Atomic             Coordinates (Angstroms)
 Number     Number       Type             X           Y           Z
 ---------------------------------------------------------------------
      1          6           0       -1.770468    1.606172    0.000014
      2          6           0       -0.947712    0.305278   -0.000014
      3          1           0       -2.708662    1.477933    0.549663
      4          1           0       -2.019050    1.913962   -1.020919
      5          1           0       -1.214339    2.423120    0.471370
      6          1           0       -1.503841   -0.511670   -0.471370
      7          1           0       -0.699130   -0.002512    1.020919
      8          1           0       -0.009518    0.433517   -0.549663
 ---------------------------------------------------------------------
                    Distance matrix (angstroms):
                    1          2          3          4          5
     1  C    0.000000
     2  C    1.539239   0.000000
     3  H    1.094883   2.185912   0.000000
     4  H    1.094912   2.185836   1.769863   0.000000
     5  H    1.094924   2.185989   1.769891   1.770234   0.000000
     6  H    2.185989   1.094924   2.540201   2.539909   3.096056
     7  H    2.185836   1.094912   2.540083   3.095831   2.539909
     8  H    2.185912   1.094883   3.095917   2.540083   2.540201
                    6          7          8
     6  H    0.000000
     7  H    1.770234   0.000000
     8  H    1.769891   1.769863   0.000000
 Stoichiometry    C2H6
 Framework group  CI[X(C2H6)]
 Deg. of freedom     9
 Full point group                 CI      NOp   2
 Largest Abelian subgroup         CI      NOp   2
 Largest concise Abelian subgroup CI      NOp   2
                         Standard orientation:                         
 ---------------------------------------------------------------------
 Center     Atomic      Atomic             Coordinates (Angstroms)
 Number     Number       Type             X           Y           Z
 ---------------------------------------------------------------------
      1          6           0       -0.411378    0.650447    0.000014
      2          6           0        0.411378   -0.650447   -0.000014
      3          1           0       -1.349572    0.522208    0.549663
      4          1           0       -0.659960    0.958237   -1.020919
      5          1           0        0.144751    1.467395    0.471370
      6          1           0       -0.144751   -1.467395   -0.471370
      7          1           0        0.659960   -0.958237    1.020919
      8          1           0        1.349572   -0.522208   -0.549663
 ---------------------------------------------------------------------
 Rotational constants (GHZ):     80.0308682     19.7823230     19.7810048
 Standard basis: LANL2DZ (5D, 7F)
 There are    15 symmetry adapted cartesian basis functions of AG  symmetry.
 There are    15 symmetry adapted cartesian basis functions of AU  symmetry.
 There are    15 symmetry adapted basis functions of AG  symmetry.
 There are    15 symmetry adapted basis functions of AU  symmetry.
    30 basis functions,    74 primitive gaussians,    30 cartesian basis functions
     9 alpha electrons        9 beta electrons
       nuclear repulsion energy        42.0472583195 Hartrees.
 NAtoms=    8 NActive=    8 NUniq=    4 SFac= 4.00D+00 NAtFMM=   60 NAOKFM=F Big=F
 Integral buffers will be    131072 words long.
 Raffenetti 2 integral format.
 Two-electron integral symmetry is turned on.
 One-electron integrals computed using PRISM.
   2 Symmetry operations used in ECPInt.
 ECPInt:  NShTT=     253 NPrTT=    1559 LenC2=     254 LenP2D=    1400.
 LDataN:  DoStor=T MaxTD1= 2 Len=   12
 NBasis=    30 RedAO= T EigKep=  6.51D-03  NBF=    15    15
 NBsUse=    30 1.00D-06 EigRej= -1.00D+00 NBFU=    15    15
 Initial guess from the checkpoint file:  "/scr/Gau-13221.chk"
 B after Tr=     0.000000    0.000000    0.000000
         Rot=    1.000000    0.000003    0.000002   -0.000004 Ang=   0.00 deg.
 Initial guess orbital symmetries:
       Occupied  (AG) (AU) (AG) (AU) (AU) (AU) (AG) (AG) (AG)
       Virtual   (AG) (AG) (AG) (AG) (AG) (AG) (AG) (AG) (AG) (AG)
                 (AU) (AU) (AU) (AU) (AU) (AU) (AU) (AU) (AU) (AU)
                 (AU)
 Keep R1 ints in memory in symmetry-blocked form, NReq=992247.
 Requested convergence on RMS density matrix=1.00D-08 within 128 cycles.
 Requested convergence on MAX density matrix=1.00D-06.
 Requested convergence on             energy=1.00D-06.
 No special actions if energy rises.
 SCF Done:  E(RM062X) =  -79.7644928144     A.U. after    6 cycles
            NFock=  6  Conv=0.62D-08     -V/T= 2.0063
   2 Symmetry operations used in ECPInt.
 ECPInt:  NShTT=     253 NPrTT=    1559 LenC2=     254 LenP2D=    1400.
 LDataN:  DoStor=T MaxTD1= 3 Len=   28
 Calling FoFJK, ICntrl=      2127 FMM=F ISym2X=1 I1Cent= 0 IOpClX= 0 NMat=1 NMatS=1 NMatT=0.
 ***** Axes restored to original set *****
 -------------------------------------------------------------------
 Center     Atomic                   Forces (Hartrees/Bohr)
 Number     Number              X              Y              Z
 -------------------------------------------------------------------
      1        6           0.000294545   -0.000457308   -0.000011484
      2        6          -0.000294545    0.000457308    0.000011484
      3        1           0.000009097    0.000045699   -0.000037777
      4        1          -0.000008424    0.000026600    0.000051325
      5        1          -0.000067554    0.000000588   -0.000020995
      6        1           0.000067554   -0.000000588    0.000020995
      7        1           0.000008424   -0.000026600   -0.000051325
      8        1          -0.000009097   -0.000045699    0.000037777
 -------------------------------------------------------------------
 Cartesian Forces:  Max     0.000457308 RMS     0.000160217

 GradGradGradGradGradGradGradGradGradGradGradGradGradGradGradGradGradGrad
 Berny optimization.
 Using GEDIIS/GDIIS optimizer.
 FormGI is forming the generalized inverse of G from B-inverse, IUseBI=4.
 Internal  Forces:  Max     0.000446586 RMS     0.000092129
 Search for a local minimum.
 Step number   3 out of a maximum of   38
 All quantities printed in internal units (Hartrees-Bohrs-Radians)
 Mixed Optimization -- En-DIIS/RFO-DIIS
 Swapping is turned off.
 Update second derivatives using D2CorX and points    1    2    3
 DE= -1.28D-05 DEPred=-1.10D-05 R= 1.16D+00
 TightC=F SS=  1.41D+00  RLast= 8.05D-03 DXNew= 5.0454D-01 2.4156D-02
 Trust test= 1.16D+00 RLast= 8.05D-03 DXMaxT set to 3.00D-01
 ITU=  1  1  0
     Eigenvalues ---    0.00280   0.05457   0.05457   0.05459   0.05459
     Eigenvalues ---    0.12925   0.16000   0.16000   0.16000   0.16000
     Eigenvalues ---    0.16002   0.32549   0.34544   0.34549   0.34549
     Eigenvalues ---    0.34549   0.34549   0.34630
 En-DIIS/RFO-DIIS IScMMF=        0 using points:     3    2
 RFO step:  Lambda=-5.11784112D-07.
 DidBck=F Rises=F RFO-DIIS coefs:    1.18848   -0.18848
 Iteration  1 RMS(Cart)=  0.00032269 RMS(Int)=  0.00000018
 Iteration  2 RMS(Cart)=  0.00000020 RMS(Int)=  0.00000009
 ClnCor:  largest displacement from symmetrization is 1.87D-10 for atom     7.
 Variable       Old X    -DE/DX   Delta X   Delta X   Delta X     New X
                                 (Linear)    (Quad)   (Total)
    R1        2.90874  -0.00045  -0.00147  -0.00039  -0.00186   2.90688
    R2        2.06903  -0.00003   0.00014  -0.00018  -0.00004   2.06899
    R3        2.06908  -0.00004   0.00013  -0.00020  -0.00007   2.06901
    R4        2.06911  -0.00004   0.00013  -0.00019  -0.00006   2.06904
    R5        2.06911  -0.00004   0.00013  -0.00019  -0.00006   2.06904
    R6        2.06908  -0.00004   0.00013  -0.00020  -0.00007   2.06901
    R7        2.06903  -0.00003   0.00014  -0.00018  -0.00004   2.06899
    A1        1.93804   0.00005   0.00006   0.00045   0.00051   1.93855
    A2        1.93790   0.00005   0.00006   0.00047   0.00053   1.93843
    A3        1.93810   0.00005   0.00003   0.00049   0.00052   1.93863
    A4        1.88229  -0.00005  -0.00006  -0.00050  -0.00055   1.88173
    A5        1.88232  -0.00005  -0.00006  -0.00050  -0.00056   1.88175
    A6        1.88281  -0.00005  -0.00004  -0.00049  -0.00054   1.88228
    A7        1.93810   0.00005   0.00003   0.00049   0.00052   1.93863
    A8        1.93790   0.00005   0.00006   0.00047   0.00053   1.93843
    A9        1.93804   0.00005   0.00006   0.00045   0.00051   1.93855
   A10        1.88281  -0.00005  -0.00004  -0.00049  -0.00054   1.88228
   A11        1.88232  -0.00005  -0.00006  -0.00050  -0.00056   1.88175
   A12        1.88229  -0.00005  -0.00006  -0.00050  -0.00055   1.88173
    D1        1.04732   0.00000   0.00001   0.00001   0.00002   1.04734
    D2       -1.04749   0.00000   0.00000  -0.00001   0.00000  -1.04749
    D3        3.14159   0.00000   0.00000   0.00000   0.00000   3.14159
    D4       -1.04678   0.00000   0.00001   0.00002   0.00003  -1.04676
    D5        3.14159   0.00000   0.00000   0.00000   0.00000   3.14159
    D6        1.04749   0.00000   0.00000   0.00001   0.00000   1.04749
    D7        3.14159   0.00000   0.00000   0.00000   0.00000   3.14159
    D8        1.04678   0.00000  -0.00001  -0.00002  -0.00003   1.04676
    D9       -1.04732   0.00000  -0.00001  -0.00001  -0.00002  -1.04734
         Item               Value     Threshold  Converged?
 Maximum Force            0.000447     0.000450     YES
 RMS     Force            0.000092     0.000300     YES
 Maximum Displacement     0.000781     0.001800     YES
 RMS     Displacement     0.000323     0.001200     YES
 Predicted change in Energy=-5.812087D-07
 Optimization completed.
    -- Stationary point found.
                           ----------------------------
                           !   Optimized Parameters   !
                           ! (Angstroms and Degrees)  !
 --------------------------                            --------------------------
 ! Name  Definition              Value          Derivative Info.                !
 --------------------------------------------------------------------------------
 ! R1    R(1,2)                  1.5392         -DE/DX =   -0.0004              !
 ! R2    R(1,3)                  1.0949         -DE/DX =    0.0                 !
 ! R3    R(1,4)                  1.0949         -DE/DX =    0.0                 !
 ! R4    R(1,5)                  1.0949         -DE/DX =    0.0                 !
 ! R5    R(2,6)                  1.0949         -DE/DX =    0.0                 !
 ! R6    R(2,7)                  1.0949         -DE/DX =    0.0                 !
 ! R7    R(2,8)                  1.0949         -DE/DX =    0.0                 !
 ! A1    A(2,1,3)              111.0416         -DE/DX =    0.0                 !
 ! A2    A(2,1,4)              111.0338         -DE/DX =    0.0                 !
 ! A3    A(2,1,5)              111.0452         -DE/DX =    0.0                 !
 ! A4    A(3,1,4)              107.8472         -DE/DX =   -0.0001              !
 ! A5    A(3,1,5)              107.8487         -DE/DX =   -0.0001              !
 ! A6    A(4,1,5)              107.8772         -DE/DX =   -0.0001              !
 ! A7    A(1,2,6)              111.0452         -DE/DX =    0.0                 !
 ! A8    A(1,2,7)              111.0338         -DE/DX =    0.0                 !
 ! A9    A(1,2,8)              111.0416         -DE/DX =    0.0                 !
 ! A10   A(6,2,7)              107.8772         -DE/DX =   -0.0001              !
 ! A11   A(6,2,8)              107.8487         -DE/DX =   -0.0001              !
 ! A12   A(7,2,8)              107.8472         -DE/DX =   -0.0001              !
 ! D1    D(3,1,2,6)             60.007          -DE/DX =    0.0                 !
 ! D2    D(3,1,2,7)            -60.0166         -DE/DX =    0.0                 !
 ! D3    D(3,1,2,8)            180.0            -DE/DX =    0.0                 !
 ! D4    D(4,1,2,6)            -59.9764         -DE/DX =    0.0                 !
 ! D5    D(4,1,2,7)            180.0            -DE/DX =    0.0                 !
 ! D6    D(4,1,2,8)             60.0166         -DE/DX =    0.0                 !
 ! D7    D(5,1,2,6)            180.0            -DE/DX =    0.0                 !
 ! D8    D(5,1,2,7)             59.9764         -DE/DX =    0.0                 !
 ! D9    D(5,1,2,8)            -60.007          -DE/DX =    0.0                 !
 --------------------------------------------------------------------------------
 GradGradGradGradGradGradGradGradGradGradGradGradGradGradGradGradGradGrad

                          Input orientation:                          
 ---------------------------------------------------------------------
 Center     Atomic      Atomic             Coordinates (Angstroms)
 Number     Number       Type             X           Y           Z
 ---------------------------------------------------------------------
      1          6           0       -1.770468    1.606172    0.000014
      2          6           0       -0.947712    0.305278   -0.000014
      3          1           0       -2.708662    1.477933    0.549663
      4          1           0       -2.019050    1.913962   -1.020919
      5          1           0       -1.214339    2.423120    0.471370
      6          1           0       -1.503841   -0.511670   -0.471370
      7          1           0       -0.699130   -0.002512    1.020919
      8          1           0       -0.009518    0.433517   -0.549663
 ---------------------------------------------------------------------
                    Distance matrix (angstroms):
                    1          2          3          4          5
     1  C    0.000000
     2  C    1.539239   0.000000
     3  H    1.094883   2.185912   0.000000
     4  H    1.094912   2.185836   1.769863   0.000000
     5  H    1.094924   2.185989   1.769891   1.770234   0.000000
     6  H    2.185989   1.094924   2.540201   2.539909   3.096056
     7  H    2.185836   1.094912   2.540083   3.095831   2.539909
     8  H    2.185912   1.094883   3.095917   2.540083   2.540201
                    6          7          8
     6  H    0.000000
     7  H    1.770234   0.000000
     8  H    1.769891   1.769863   0.000000
 Stoichiometry    C2H6
 Framework group  CI[X(C2H6)]
 Deg. of freedom     9
 Full point group                 CI      NOp   2
 Largest Abelian subgroup         CI      NOp   2
 Largest concise Abelian subgroup CI      NOp   2
                         Standard orientation:                         
 ---------------------------------------------------------------------
 Center     Atomic      Atomic             Coordinates (Angstroms)
 Number     Number       Type             X           Y           Z
 ---------------------------------------------------------------------
      1          6           0       -0.411378    0.650447    0.000014
      2          6           0        0.411378   -0.650447   -0.000014
      3          1           0       -1.349572    0.522208    0.549663
      4          1           0       -0.659960    0.958237   -1.020919
      5          1           0        0.144751    1.467395    0.471370
      6          1           0       -0.144751   -1.467395   -0.471370
      7          1           0        0.659960   -0.958237    1.020919
      8          1           0        1.349572   -0.522208   -0.549663
 ---------------------------------------------------------------------
 Rotational constants (GHZ):     80.0308682     19.7823230     19.7810048

 **********************************************************************

            Population analysis using the SCF density.

 **********************************************************************

 Orbital symmetries:
       Occupied  (AG) (AU) (AG) (AU) (AU) (AU) (AG) (AG) (AG)
       Virtual   (AU) (AG) (AG) (AG) (AU) (AU) (AU) (AG) (AU) (AU)
                 (AG) (AG) (AU) (AG) (AU) (AG) (AU) (AU) (AG) (AG)
                 (AU)
 The electronic state is 1-AG.
 Alpha  occ. eigenvalues --  -10.53094 -10.53062  -0.84130  -0.69650  -0.49774
 Alpha  occ. eigenvalues --   -0.49766  -0.42050  -0.39918  -0.39910
 Alpha virt. eigenvalues --    0.16970   0.18173   0.23397   0.23401   0.26429
 Alpha virt. eigenvalues --    0.26434   0.28997   0.33886   0.34064   0.34069
 Alpha virt. eigenvalues --    0.38637   0.38641   0.55162   0.97150   1.10332
 Alpha virt. eigenvalues --    1.15302   1.18158   1.18174   1.20482   1.20505
 Alpha virt. eigenvalues --    1.39785
          Condensed to atoms (all electrons):
               1          2          3          4          5          6
     1  C    5.262222   0.299684   0.384644   0.384641   0.384641  -0.040234
     2  C    0.299684   5.262222  -0.040246  -0.040269  -0.040234   0.384641
     3  H    0.384644  -0.040246   0.503356  -0.022121  -0.022122  -0.002418
     4  H    0.384641  -0.040269  -0.022121   0.503326  -0.022069  -0.002413
     5  H    0.384641  -0.040234  -0.022122  -0.022069   0.503286   0.002963
     6  H   -0.040234   0.384641  -0.002418  -0.002413   0.002963   0.503286
     7  H   -0.040269   0.384641  -0.002418   0.002966  -0.002413  -0.022069
     8  H   -0.040246   0.384644   0.002965  -0.002418  -0.002418  -0.022122
               7          8
     1  C   -0.040269  -0.040246
     2  C    0.384641   0.384644
     3  H   -0.002418   0.002965
     4  H    0.002966  -0.002418
     5  H   -0.002413  -0.002418
     6  H   -0.022069  -0.022122
     7  H    0.503326  -0.022121
     8  H   -0.022121   0.503356
 Mulliken charges:
               1
     1  C   -0.595083
     2  C   -0.595083
     3  H    0.198359
     4  H    0.198357
     5  H    0.198366
     6  H    0.198366
     7  H    0.198357
     8  H    0.198359
 Sum of Mulliken charges =   0.00000
 Mulliken charges with hydrogens summed into heavy atoms:
               1
     1  C    0.000000
     2  C    0.000000
 Electronic spatial extent (au):  <R**2>=            109.8291
 Charge=              0.0000 electrons
 Dipole moment (field-independent basis, Debye):
    X=              0.0000    Y=              0.0000    Z=              0.0000  Tot=              0.0000
 Quadrupole moment (field-independent basis, Debye-Ang):
   XX=            -14.8174   YY=            -15.0437   ZZ=            -14.6661
   XY=              0.2378   XZ=              0.0008   YZ=              0.0013
 Traceless Quadrupole moment (field-independent basis, Debye-Ang):
   XX=              0.0250   YY=             -0.2013   ZZ=              0.1763
   XY=              0.2378   XZ=              0.0008   YZ=              0.0013
 Octapole moment (field-independent basis, Debye-Ang**2):
  XXX=              0.0000  YYY=              0.0000  ZZZ=              0.0000  XYY=              0.0000
  XXY=              0.0000  XXZ=              0.0000  XZZ=              0.0000  YZZ=              0.0000
  YYZ=              0.0000  XYZ=              0.0000
 Hexadecapole moment (field-independent basis, Debye-Ang**3):
 XXXX=            -45.2923 YYYY=            -72.9344 ZZZZ=            -28.1483 XXXY=             13.8895
 XXXZ=             -1.7960 YYYX=             15.7422 YYYZ=              1.1388 ZZZX=              0.8392
 ZZZY=             -1.3265 XXYY=            -20.5321 XXZZ=            -11.8841 YYZZ=            -16.2995
 XXYZ=              0.1884 YYXZ=              0.9579 ZZXY=              4.1650
 N-N= 4.204725831951D+01 E-N=-2.681074459061D+02  KE= 7.926859006267D+01
 Symmetry AG   KE= 4.114382126689D+01
 Symmetry AU   KE= 3.812476879578D+01
 1\1\GINC-N0299\FOpt\RM062X\LANL2DZ\C2H6\TAIYUPAN\23-Feb-2017\0\\#n M06
 2X/LANL2DZ Opt\\CH3_M062X/6-31G(d,p)\\0,1\C,-1.7704681062,1.6061724905
 ,0.0000140052\C,-0.9477118938,0.3052775095,-0.0000140052\H,-2.70866240
 66,1.4779325971,0.5496632762\H,-2.0190502554,1.9139620874,-1.020919116
 8\H,-1.2143386226,2.4231199327,0.4713696826\H,-1.5038413774,-0.5116699
 327,-0.4713696826\H,-0.6991297446,-0.0025120874,1.0209191168\H,-0.0095
 175934,0.4335174029,-0.5496632762\\Version=ES64L-G09RevE.01\State=1-AG
 \HF=-79.7644928\RMSD=6.155e-09\RMSF=1.602e-04\Dipole=0.,0.,0.\Quadrupo
 le=0.01859,-0.1496568,0.1310668,0.176799,0.0005716,0.0009893\PG=CI [X(
 C2H6)]\\@


 HO!  SUCH BUGS AND GOBLINS IN MY LIFE!

                            -- HAMLET, ACT 5, SCENE 2
 Job cpu time:       0 days  0 hours  0 minutes 31.9 seconds.
 File lengths (MBytes):  RWF=      5 Int=      0 D2E=      0 Chk=      1 Scr=      1
 Normal termination of Gaussian 09 at Thu Feb 23 18:28:09 2017.
