 Entering Gaussian System, Link 0=g09
 Input=HH_CCSD_L.com
 Output=HH_CCSD_L.log
 Initial command:
 /sw/contrib/gaussian/g09/E01/g09/l1.exe "/scr/Gau-18796.inp" -scrdir="/scr/"
 Entering Link 1 = /sw/contrib/gaussian/g09/E01/g09/l1.exe PID=     18797.
  
 Copyright (c) 1988,1990,1992,1993,1995,1998,2003,2009,2015,
            Gaussian, Inc.  All Rights Reserved.
  
 This is part of the Gaussian(R) 09 program.  It is based on
 the Gaussian(R) 03 system (copyright 2003, Gaussian, Inc.),
 the Gaussian(R) 98 system (copyright 1998, Gaussian, Inc.),
 the Gaussian(R) 94 system (copyright 1995, Gaussian, Inc.),
 the Gaussian 92(TM) system (copyright 1992, Gaussian, Inc.),
 the Gaussian 90(TM) system (copyright 1990, Gaussian, Inc.),
 the Gaussian 88(TM) system (copyright 1988, Gaussian, Inc.),
 the Gaussian 86(TM) system (copyright 1986, Carnegie Mellon
 University), and the Gaussian 82(TM) system (copyright 1983,
 Carnegie Mellon University). Gaussian is a federally registered
 trademark of Gaussian, Inc.
  
 This software contains proprietary and confidential information,
 including trade secrets, belonging to Gaussian, Inc.
  
 This software is provided under written license and may be
 used, copied, transmitted, or stored only in accord with that
 written license.
  
 The following legend is applicable only to US Government
 contracts under FAR:
  
                    RESTRICTED RIGHTS LEGEND
  
 Use, reproduction and disclosure by the US Government is
 subject to restrictions as set forth in subparagraphs (a)
 and (c) of the Commercial Computer Software - Restricted
 Rights clause in FAR 52.227-19.
  
 Gaussian, Inc.
 340 Quinnipiac St., Bldg. 40, Wallingford CT 06492
  
  
 ---------------------------------------------------------------
 Warning -- This program may not be used in any manner that
 competes with the business of Gaussian, Inc. or will provide
 assistance to any competitor of Gaussian, Inc.  The licensee
 of this program is prohibited from giving any competitor of
 Gaussian, Inc. access to this program.  By using this program,
 the user acknowledges that Gaussian, Inc. is engaged in the
 business of creating and licensing software in the field of
 computational chemistry and represents and warrants to the
 licensee that it is not a competitor of Gaussian, Inc. and that
 it will not use this program in any manner prohibited above.
 ---------------------------------------------------------------
  

 Cite this work as:
 Gaussian 09, Revision E.01,
 M. J. Frisch, G. W. Trucks, H. B. Schlegel, G. E. Scuseria, 
 M. A. Robb, J. R. Cheeseman, G. Scalmani, V. Barone, B. Mennucci, 
 G. A. Petersson, H. Nakatsuji, M. Caricato, X. Li, H. P. Hratchian, 
 A. F. Izmaylov, J. Bloino, G. Zheng, J. L. Sonnenberg, M. Hada, 
 M. Ehara, K. Toyota, R. Fukuda, J. Hasegawa, M. Ishida, T. Nakajima, 
 Y. Honda, O. Kitao, H. Nakai, T. Vreven, J. A. Montgomery, Jr., 
 J. E. Peralta, F. Ogliaro, M. Bearpark, J. J. Heyd, E. Brothers, 
 K. N. Kudin, V. N. Staroverov, T. Keith, R. Kobayashi, J. Normand, 
 K. Raghavachari, A. Rendell, J. C. Burant, S. S. Iyengar, J. Tomasi, 
 M. Cossi, N. Rega, J. M. Millam, M. Klene, J. E. Knox, J. B. Cross, 
 V. Bakken, C. Adamo, J. Jaramillo, R. Gomperts, R. E. Stratmann, 
 O. Yazyev, A. J. Austin, R. Cammi, C. Pomelli, J. W. Ochterski, 
 R. L. Martin, K. Morokuma, V. G. Zakrzewski, G. A. Voth, 
 P. Salvador, J. J. Dannenberg, S. Dapprich, A. D. Daniels, 
 O. Farkas, J. B. Foresman, J. V. Ortiz, J. Cioslowski, 
 and D. J. Fox, Gaussian, Inc., Wallingford CT, 2013.
 
 ******************************************
 Gaussian 09:  ES64L-G09RevE.01 30-Nov-2015
                24-Feb-2017 
 ******************************************
 %NProcShared=8
 Will use up to    8 processors via shared memory.
 -------------------
 #n CCSD/LANL2DZ Opt
 -------------------
 1/18=20,19=15,38=1/1,3;
 2/9=110,12=2,17=6,18=5,40=1/2;
 3/5=6,6=3,11=9,16=1,25=1,30=1,71=1/1,2,3;
 4//1;
 5/5=2,38=5/2;
 8/6=4,9=120000,10=1/1,4;
 9/5=7,15=1/13;
 11/28=-8,29=200,42=3/11;
 10/5=6/2;
 6/7=2,8=2,9=2,10=2/1;
 7/12=7/1,2,3,16;
 1/18=20,19=15/3(2);
 2/9=110/2;
 99//99;
 2/9=110/2;
 3/5=6,6=3,11=9,16=1,25=1,30=1,71=1/1,2,3;
 4/5=5,16=3,69=1/1;
 5/5=2,38=5/2;
 8/6=4,9=120000,10=1/1,4;
 9/5=7,15=1/13;
 11/28=-8,29=200,42=3/11;
 10/5=6/2;
 7/12=7/1,2,3,16;
 1/18=20,19=15/3(-9);
 2/9=110/2;
 6/7=2,8=2,9=2,10=2/1;
 99//99;
 -----
 Title
 -----
 Symbolic Z-matrix:
 Charge =  0 Multiplicity = 1
 H                    -0.10776  -1.95391   1.03402 
 H                    -0.62202  -2.68857   1.67104 
 
 Add virtual bond connecting atoms H2         and H1         Dist= 2.08D+00.

 GradGradGradGradGradGradGradGradGradGradGradGradGradGradGradGradGradGrad
 Berny optimization.
 Initialization pass.
                           ----------------------------
                           !    Initial Parameters    !
                           ! (Angstroms and Degrees)  !
 --------------------------                            --------------------------
 ! Name  Definition              Value          Derivative Info.                !
 --------------------------------------------------------------------------------
 ! R1    R(1,2)                  1.1            estimate D2E/DX2                !
 --------------------------------------------------------------------------------
 Trust Radius=3.00D-01 FncErr=1.00D-07 GrdErr=1.00D-07
 Number of steps in this run=     20 maximum allowed number of steps=    100.
 GradGradGradGradGradGradGradGradGradGradGradGradGradGradGradGradGradGrad

                          Input orientation:                          
 ---------------------------------------------------------------------
 Center     Atomic      Atomic             Coordinates (Angstroms)
 Number     Number       Type             X           Y           Z
 ---------------------------------------------------------------------
      1          1           0       -0.107760   -1.953910    1.034020
      2          1           0       -0.622020   -2.688570    1.671040
 ---------------------------------------------------------------------
 Stoichiometry    H2
 Framework group  D*H[C*(H.H)]
 Deg. of freedom     1
 Full point group                 D*H     NOp   8
 Largest Abelian subgroup         D2H     NOp   8
 Largest concise Abelian subgroup C2      NOp   2
                         Standard orientation:                         
 ---------------------------------------------------------------------
 Center     Atomic      Atomic             Coordinates (Angstroms)
 Number     Number       Type             X           Y           Z
 ---------------------------------------------------------------------
      1          1           0        0.000000    0.000000    0.549996
      2          1           0        0.000000    0.000000   -0.549996
 ---------------------------------------------------------------------
 Rotational constants (GHZ):      0.0000000    828.8629522    828.8629522
 Standard basis: LANL2DZ (5D, 7F)
 There are     2 symmetry adapted cartesian basis functions of AG  symmetry.
 There are     0 symmetry adapted cartesian basis functions of B1G symmetry.
 There are     0 symmetry adapted cartesian basis functions of B2G symmetry.
 There are     0 symmetry adapted cartesian basis functions of B3G symmetry.
 There are     0 symmetry adapted cartesian basis functions of AU  symmetry.
 There are     2 symmetry adapted cartesian basis functions of B1U symmetry.
 There are     0 symmetry adapted cartesian basis functions of B2U symmetry.
 There are     0 symmetry adapted cartesian basis functions of B3U symmetry.
 There are     2 symmetry adapted basis functions of AG  symmetry.
 There are     0 symmetry adapted basis functions of B1G symmetry.
 There are     0 symmetry adapted basis functions of B2G symmetry.
 There are     0 symmetry adapted basis functions of B3G symmetry.
 There are     0 symmetry adapted basis functions of AU  symmetry.
 There are     2 symmetry adapted basis functions of B1U symmetry.
 There are     0 symmetry adapted basis functions of B2U symmetry.
 There are     0 symmetry adapted basis functions of B3U symmetry.
     4 basis functions,     8 primitive gaussians,     4 cartesian basis functions
     1 alpha electrons        1 beta electrons
       nuclear repulsion energy         0.4810735405 Hartrees.
 NAtoms=    2 NActive=    2 NUniq=    1 SFac= 4.00D+00 NAtFMM=   60 NAOKFM=F Big=F
 Integral buffers will be    131072 words long.
 Raffenetti 1 integral format.
 Two-electron integral symmetry is turned on.
 One-electron integrals computed using PRISM.
   8 Symmetry operations used in ECPInt.
 ECPInt:  NShTT=      10 NPrTT=      42 LenC2=      11 LenP2D=      42.
 LDataN:  DoStor=T MaxTD1= 1 Len=    4
 NBasis=     4 RedAO= T EigKep=  2.34D-01  NBF=     2     0     0     0     0     2     0     0
 NBsUse=     4 1.00D-06 EigRej= -1.00D+00 NBFU=     2     0     0     0     0     2     0     0
 ExpMin= 1.78D-01 ExpMax= 1.92D+01 ExpMxC= 1.92D+01 IAcc=1 IRadAn=         1 AccDes= 0.00D+00
 Harris functional with IExCor=  205 and IRadAn=       1 diagonalized for initial guess.
 HarFok:  IExCor=  205 AccDes= 0.00D+00 IRadAn=         1 IDoV= 1 UseB2=F ITyADJ=14
 ICtDFT=  3500011 ScaDFX=  1.000000  1.000000  1.000000  1.000000
 FoFCou: FMM=F IPFlag=           0 FMFlag=      100000 FMFlg1=           0
         NFxFlg=           0 DoJE=T BraDBF=F KetDBF=T FulRan=T
         wScrn=  0.000000 ICntrl=     500 IOpCl=  0 I1Cent=   200000004 NGrid=           0
         NMat0=    1 NMatS0=      1 NMatT0=    0 NMatD0=    1 NMtDS0=    0 NMtDT0=    0
 Petite list used in FoFCou.
 Initial guess orbital symmetries:
       Occupied  (SGG)
       Virtual   (SGU) (SGG) (SGU)
 The electronic state of the initial guess is 1-SGG.
 Keep R1 ints in memory in symmetry-blocked form, NReq=821726.
 Requested convergence on RMS density matrix=1.00D-08 within 128 cycles.
 Requested convergence on MAX density matrix=1.00D-06.
 Requested convergence on             energy=1.00D-06.
 No special actions if energy rises.
 SCF Done:  E(RHF) =  -1.07515878104     A.U. after    4 cycles
            NFock=  4  Conv=0.30D-10     -V/T= 2.2187
 Range of M.O.s used for correlation:     1     4
 NBasis=     4 NAE=     1 NBE=     1 NFC=     0 NFV=     0
 NROrb=      4 NOA=     1 NOB=     1 NVA=     3 NVB=     3
 Semi-Direct transformation.
 ModeAB=           4 MOrb=             1 LenV=      33499459
 LASXX=           10 LTotXX=          10 LenRXX=          29
 LTotAB=          19 MaxLAS=          24 LenRXY=           0
 NonZer=          39 LenScr=      785920 LnRSAI=          24
 LnScr1=      785920 LExtra=           0 Total=      1571893
 MaxDsk=          -1 SrtSym=           T ITran=            4
 JobTyp=0 Pass  1:  I=   1 to   1.
 (rs|ai) integrals will be sorted in core.
 Spin components of T(2) and E(2):
     alpha-alpha T2 =       0.0000000000D+00 E2=      0.0000000000D+00
     alpha-beta  T2 =       0.1234591009D-01 E2=     -0.2182479097D-01
     beta-beta   T2 =       0.0000000000D+00 E2=      0.0000000000D+00
 ANorm=    0.1006154019D+01
 E2 =    -0.2182479097D-01 EUMP2 =    -0.10969835720108D+01
 Keep R2 and R3 ints in memory in symmetry-blocked form, NReq=801520.
 Iterations=  50 Convergence= 0.100D-07
 Iteration Nr.   1
 **********************
 DD1Dir will call FoFMem   1 times, MxPair=         2
 NAB=     1 NAA=     0 NBB=     0.
 MP4(R+Q)=  0.26944691D-03
 E3=       -0.81580795D-02        EUMP3=      -0.11051416515D+01
 E4(DQ)=   -0.32632082D-02        UMP4(DQ)=   -0.11084048598D+01
 E4(SDQ)=  -0.34583760D-02        UMP4(SDQ)=  -0.11086000276D+01
 DE(Corr)= -0.29707845E-01 E(Corr)=     -1.1048666258    
 NORM(A)=   0.10167228D+01
 Iteration Nr.   2
 **********************
 DD1Dir will call FoFMem   1 times, MxPair=         2
 NAB=     1 NAA=     0 NBB=     0.
 DE(Corr)= -0.34950584E-01 E(CORR)=     -1.1101093654     Delta=-5.24D-03
 NORM(A)=   0.10191684D+01
 Iteration Nr.   3
 **********************
 DD1Dir will call FoFMem   1 times, MxPair=         2
 NAB=     1 NAA=     0 NBB=     0.
 DE(Corr)= -0.35898398E-01 E(CORR)=     -1.1110571795     Delta=-9.48D-04
 NORM(A)=   0.10193044D+01
 Iteration Nr.   4
 **********************
 DD1Dir will call FoFMem   1 times, MxPair=         2
 NAB=     1 NAA=     0 NBB=     0.
 DE(Corr)= -0.35944728E-01 E(CORR)=     -1.1111035088     Delta=-4.63D-05
 NORM(A)=   0.10192819D+01
 Iteration Nr.   5
 **********************
 DD1Dir will call FoFMem   1 times, MxPair=         2
 NAB=     1 NAA=     0 NBB=     0.
 DE(Corr)= -0.35936512E-01 E(CORR)=     -1.1110952933     Delta= 8.22D-06
 NORM(A)=   0.10192870D+01
 Iteration Nr.   6
 **********************
 DD1Dir will call FoFMem   1 times, MxPair=         2
 NAB=     1 NAA=     0 NBB=     0.
 DE(Corr)= -0.35938278E-01 E(CORR)=     -1.1110970591     Delta=-1.77D-06
 NORM(A)=   0.10192870D+01
 Iteration Nr.   7
 **********************
 DD1Dir will call FoFMem   1 times, MxPair=         2
 NAB=     1 NAA=     0 NBB=     0.
 DE(Corr)= -0.35938247E-01 E(CORR)=     -1.1110970285     Delta= 3.06D-08
 NORM(A)=   0.10192869D+01
 Iteration Nr.   8
 **********************
 DD1Dir will call FoFMem   1 times, MxPair=         2
 NAB=     1 NAA=     0 NBB=     0.
 DE(Corr)= -0.35938219E-01 E(CORR)=     -1.1110969996     Delta= 2.88D-08
 NORM(A)=   0.10192869D+01
 Iteration Nr.   9
 **********************
 DD1Dir will call FoFMem   1 times, MxPair=         2
 NAB=     1 NAA=     0 NBB=     0.
 DE(Corr)= -0.35938225E-01 E(CORR)=     -1.1110970057     Delta=-6.09D-09
 NORM(A)=   0.10192869D+01
 Dominant configurations:
 ***********************
 Spin Case        I    J    A    B          Value
   ABAB           1    1    2    2      -0.172144D+00
 Largest amplitude= 1.72D-01

 Z-AMPLITUDE ITERATIONS

 Iteration Nr.   1
 **********************
 DD1Dir will call FoFMem   1 times, MxPair=         2
 NAB=     1 NAA=     0 NBB=     0.
 DE(Z)  -0.35080818D-01          E(Z)=    -0.11102395988D+01
 NORM(A)=   0.10192881D+01
 Iteration Nr.   2
 **********************
 DD1Dir will call FoFMem   1 times, MxPair=         2
 NAB=     1 NAA=     0 NBB=     0.
 DE(Z)  -0.35081251D-01          E(Z)=    -0.11102400323D+01
 NORM(A)=   0.10192872D+01
 Iteration Nr.   3
 **********************
 DD1Dir will call FoFMem   1 times, MxPair=         2
 NAB=     1 NAA=     0 NBB=     0.
 DE(Z)  -0.35080921D-01          E(Z)=    -0.11102397022D+01
 NORM(A)=   0.10192871D+01
 Iteration Nr.   4
 **********************
 DD1Dir will call FoFMem   1 times, MxPair=         2
 NAB=     1 NAA=     0 NBB=     0.
 DE(Z)  -0.35080898D-01          E(Z)=    -0.11102396789D+01
 NORM(A)=   0.10192871D+01
 Iteration Nr.   5
 **********************
 DD1Dir will call FoFMem   1 times, MxPair=         2
 NAB=     1 NAA=     0 NBB=     0.
 DE(Z)  -0.35080882D-01          E(Z)=    -0.11102396627D+01
 NORM(A)=   0.10178614D+01
 Iteration Nr.   6
 **********************
 DD1Dir will call FoFMem   1 times, MxPair=         2
 NAB=     1 NAA=     0 NBB=     0.
 DE(Z)  -0.34572576D-01          E(Z)=    -0.11097313566D+01
 NORM(A)=   0.10178616D+01
 Iteration Nr.   7
 **********************
 DD1Dir will call FoFMem   1 times, MxPair=         2
 NAB=     1 NAA=     0 NBB=     0.
 DE(Z)  -0.34572679D-01          E(Z)=    -0.11097314598D+01
 NORM(A)=   0.10178616D+01
 Iteration Nr.   8
 **********************
 DD1Dir will call FoFMem   1 times, MxPair=         2
 NAB=     1 NAA=     0 NBB=     0.
 DE(Z)  -0.34572667D-01          E(Z)=    -0.11097314477D+01
 NORM(A)=   0.10178616D+01
 Iteration Nr.   9
 **********************
 DD1Dir will call FoFMem   1 times, MxPair=         2
 NAB=     1 NAA=     0 NBB=     0.
 DE(Z)  -0.34572666D-01          E(Z)=    -0.11097314473D+01
 NORM(A)=   0.10178616D+01
 Discarding MO integrals.
          IDoAtm=11
          Differentiating once with respect to electric field.
                with respect to dipole field.
          Differentiating once with respect to nuclear coordinates.
 Keep R1 ints in memory in symmetry-blocked form, NReq=802400.
          There are     1 degrees of freedom in the 1st order CPHF.  IDoFFX=0 NUNeed=     1.
 LinEq1:  Iter=  0 NonCon=     1 RMS=2.85D-02 Max=4.93D-02 NDo=     1
 AX will form     1 AO Fock derivatives at one time.
 LinEq1:  Iter=  1 NonCon=     0 RMS=2.64D-18 Max=4.06D-18 NDo=     1
 Linear equations converged to 1.000D-10 1.000D-09 after     1 iterations.
 End of Minotr F.D. properties file   721 does not exist.
 End of Minotr F.D. properties file   722 does not exist.
 End of Minotr F.D. properties file   788 does not exist.

 **********************************************************************

            Population analysis using the SCF density.

 **********************************************************************

 Orbital symmetries:
       Occupied  (SGG)
       Virtual   (SGU) (SGG) (SGU)
 The electronic state is 1-SGG.
 Alpha  occ. eigenvalues --   -0.50163
 Alpha virt. eigenvalues --    0.15781   1.04085   1.18847
          Condensed to atoms (all electrons):
               1          2
     1  H    0.656203   0.343797
     2  H    0.343797   0.656203
 Mulliken charges:
               1
     1  H    0.000000
     2  H    0.000000
 Sum of Mulliken charges =   0.00000
 Mulliken charges with hydrogens summed into heavy atoms:
               1
 Electronic spatial extent (au):  <R**2>=              6.8755
 Charge=              0.0000 electrons
 Dipole moment (field-independent basis, Debye):
    X=              0.0000    Y=              0.0000    Z=              0.0000  Tot=              0.0000
 Quadrupole moment (field-independent basis, Debye-Ang):
   XX=             -2.3951   YY=             -2.3951   ZZ=             -1.5517
   XY=              0.0000   XZ=              0.0000   YZ=              0.0000
 Traceless Quadrupole moment (field-independent basis, Debye-Ang):
   XX=             -0.2811   YY=             -0.2811   ZZ=              0.5622
   XY=              0.0000   XZ=              0.0000   YZ=              0.0000
 Octapole moment (field-independent basis, Debye-Ang**2):
  XXX=              0.0000  YYY=              0.0000  ZZZ=              0.0000  XYY=              0.0000
  XXY=              0.0000  XXZ=              0.0000  XZZ=              0.0000  YZZ=              0.0000
  YYZ=              0.0000  XYZ=              0.0000
 Hexadecapole moment (field-independent basis, Debye-Ang**3):
 XXXX=             -2.3072 YYYY=             -2.3072 ZZZZ=             -4.8508 XXXY=              0.0000
 XXXZ=              0.0000 YYYX=              0.0000 YYYZ=              0.0000 ZZZX=              0.0000
 ZZZY=              0.0000 XXYY=             -0.7691 XXZZ=             -1.2400 YYZZ=             -1.2400
 XXYZ=              0.0000 YYXZ=              0.0000 ZZXY=              0.0000
 N-N= 4.810735405348D-01 E-N=-2.991427191971D+00  KE= 8.822233733603D-01
 Symmetry AG   KE= 8.822233733603D-01
 Symmetry B1G  KE= 0.000000000000D+00
 Symmetry B2G  KE= 0.000000000000D+00
 Symmetry B3G  KE= 0.000000000000D+00
 Symmetry AU   KE= 0.000000000000D+00
 Symmetry B1U  KE= 3.502425809306D-32
 Symmetry B2U  KE= 0.000000000000D+00
 Symmetry B3U  KE= 0.000000000000D+00
   8 Symmetry operations used in ECPInt.
 ECPInt:  NShTT=      10 NPrTT=      42 LenC2=      11 LenP2D=      42.
 LDataN:  DoStor=T MaxTD1= 2 Len=   12
 Calling FoFJK, ICntrl=  10002127 FMM=F ISym2X=1 I1Cent= 0 IOpClX= 0 NMat=1 NMatS=1 NMatT=0.
 ***** Axes restored to original set *****
 -------------------------------------------------------------------
 Center     Atomic                   Forces (Hartrees/Bohr)
 Number     Number              X              Y              Z
 -------------------------------------------------------------------
      1        1          -0.039394831   -0.056278549    0.048798847
      2        1           0.039394831    0.056278549   -0.048798847
 -------------------------------------------------------------------
 Cartesian Forces:  Max     0.056278549 RMS     0.048650301

 GradGradGradGradGradGradGradGradGradGradGradGradGradGradGradGradGradGrad
 Berny optimization.
 FormGI is forming the generalized inverse of G from B-inverse, IUseBI=4.
 Internal  Forces:  Max     0.084264793 RMS     0.084264793
 Search for a local minimum.
 Step number   1 out of a maximum of   20
 All quantities printed in internal units (Hartrees-Bohrs-Radians)
 Mixed Optimization -- RFO/linear search
 Second derivative matrix not updated -- first step.
 The second derivative matrix:
                          R1
           R1           0.13838
 ITU=  0
     Eigenvalues ---    0.13838
 RFO step:  Lambda=-3.98409357D-02 EMin= 1.38381667D-01
 Linear search not attempted -- first point.
 Maximum step size (   0.300) exceeded in Quadratic search.
    -- Step size scaled by   0.635
 Iteration  1 RMS(Cart)=  0.14142136 RMS(Int)=  0.10000000
 Iteration  2 RMS(Cart)=  0.07071068 RMS(Int)=  0.00000000
 Iteration  3 RMS(Cart)=  0.00000000 RMS(Int)=  0.00000000
 ClnCor:  largest displacement from symmetrization is 8.88D-16 for atom     2.
 Variable       Old X    -DE/DX   Delta X   Delta X   Delta X     New X
                                 (Linear)    (Quad)   (Total)
    R1        2.07868  -0.08426   0.00000  -0.30000  -0.30000   1.77868
         Item               Value     Threshold  Converged?
 Maximum Force            0.084265     0.000450     NO 
 RMS     Force            0.084265     0.000300     NO 
 Maximum Displacement     0.100182     0.001800     NO 
 RMS     Displacement     0.212132     0.001200     NO 
 Predicted change in Energy=-1.905226D-02
 GradGradGradGradGradGradGradGradGradGradGradGradGradGradGradGradGradGrad

                          Input orientation:                          
 ---------------------------------------------------------------------
 Center     Atomic      Atomic             Coordinates (Angstroms)
 Number     Number       Type             X           Y           Z
 ---------------------------------------------------------------------
      1          1           0       -0.144870   -2.006924    1.079988
      2          1           0       -0.584910   -2.635556    1.625072
 ---------------------------------------------------------------------
 Stoichiometry    H2
 Framework group  D*H[C*(H.H)]
 Deg. of freedom     1
 Full point group                 D*H     NOp   8
 Largest Abelian subgroup         D2H     NOp   8
 Largest concise Abelian subgroup C2      NOp   2
                         Standard orientation:                         
 ---------------------------------------------------------------------
 Center     Atomic      Atomic             Coordinates (Angstroms)
 Number     Number       Type             X           Y           Z
 ---------------------------------------------------------------------
      1          1           0        0.000000    0.000000    0.470620
      2          1           0        0.000000    0.000000   -0.470620
 ---------------------------------------------------------------------
 Rotational constants (GHZ):      0.0000000   1132.0407467   1132.0407467
 Standard basis: LANL2DZ (5D, 7F)
 There are     2 symmetry adapted cartesian basis functions of AG  symmetry.
 There are     0 symmetry adapted cartesian basis functions of B1G symmetry.
 There are     0 symmetry adapted cartesian basis functions of B2G symmetry.
 There are     0 symmetry adapted cartesian basis functions of B3G symmetry.
 There are     0 symmetry adapted cartesian basis functions of AU  symmetry.
 There are     2 symmetry adapted cartesian basis functions of B1U symmetry.
 There are     0 symmetry adapted cartesian basis functions of B2U symmetry.
 There are     0 symmetry adapted cartesian basis functions of B3U symmetry.
 There are     2 symmetry adapted basis functions of AG  symmetry.
 There are     0 symmetry adapted basis functions of B1G symmetry.
 There are     0 symmetry adapted basis functions of B2G symmetry.
 There are     0 symmetry adapted basis functions of B3G symmetry.
 There are     0 symmetry adapted basis functions of AU  symmetry.
 There are     2 symmetry adapted basis functions of B1U symmetry.
 There are     0 symmetry adapted basis functions of B2U symmetry.
 There are     0 symmetry adapted basis functions of B3U symmetry.
     4 basis functions,     8 primitive gaussians,     4 cartesian basis functions
     1 alpha electrons        1 beta electrons
       nuclear repulsion energy         0.5622133273 Hartrees.
 NAtoms=    2 NActive=    2 NUniq=    1 SFac= 4.00D+00 NAtFMM=   60 NAOKFM=F Big=F
 Integral buffers will be    131072 words long.
 Raffenetti 1 integral format.
 Two-electron integral symmetry is turned on.
 One-electron integrals computed using PRISM.
   8 Symmetry operations used in ECPInt.
 ECPInt:  NShTT=      10 NPrTT=      42 LenC2=      11 LenP2D=      42.
 LDataN:  DoStor=T MaxTD1= 1 Len=    4
 NBasis=     4 RedAO= T EigKep=  1.95D-01  NBF=     2     0     0     0     0     2     0     0
 NBsUse=     4 1.00D-06 EigRej= -1.00D+00 NBFU=     2     0     0     0     0     2     0     0
 Initial guess from the checkpoint file:  "/scr/Gau-18797.chk"
 B after Tr=     0.000000    0.000000    0.000000
         Rot=    1.000000    0.000000    0.000000    0.000000 Ang=   0.00 deg.
 Initial guess orbital symmetries:
       Occupied  (SGG)
       Virtual   (SGG) (SGU) (SGU)
 ExpMin= 1.78D-01 ExpMax= 1.92D+01 ExpMxC= 1.92D+01 IAcc=1 IRadAn=         1 AccDes= 0.00D+00
 Harris functional with IExCor=  205 and IRadAn=       1 diagonalized for initial guess.
 HarFok:  IExCor=  205 AccDes= 0.00D+00 IRadAn=         1 IDoV= 1 UseB2=F ITyADJ=14
 ICtDFT=  3500011 ScaDFX=  1.000000  1.000000  1.000000  1.000000
 FoFCou: FMM=F IPFlag=           0 FMFlag=      100000 FMFlg1=           0
         NFxFlg=           0 DoJE=T BraDBF=F KetDBF=T FulRan=T
         wScrn=  0.000000 ICntrl=     500 IOpCl=  0 I1Cent=   200000004 NGrid=           0
         NMat0=    1 NMatS0=      1 NMatT0=    0 NMatD0=    1 NMtDS0=    0 NMtDT0=    0
 Petite list used in FoFCou.
 Keep R1 ints in memory in symmetry-blocked form, NReq=821726.
 Requested convergence on RMS density matrix=1.00D-08 within 128 cycles.
 Requested convergence on MAX density matrix=1.00D-06.
 Requested convergence on             energy=1.00D-06.
 No special actions if energy rises.
 SCF Done:  E(RHF) =  -1.10499744051     A.U. after    4 cycles
            NFock=  4  Conv=0.98D-08     -V/T= 2.1412
 Range of M.O.s used for correlation:     1     4
 NBasis=     4 NAE=     1 NBE=     1 NFC=     0 NFV=     0
 NROrb=      4 NOA=     1 NOB=     1 NVA=     3 NVB=     3
 Semi-Direct transformation.
 ModeAB=           4 MOrb=             1 LenV=      33499459
 LASXX=           10 LTotXX=          10 LenRXX=          29
 LTotAB=          19 MaxLAS=          24 LenRXY=           0
 NonZer=          39 LenScr=      785920 LnRSAI=          24
 LnScr1=      785920 LExtra=           0 Total=      1571893
 MaxDsk=          -1 SrtSym=           T ITran=            4
 JobTyp=0 Pass  1:  I=   1 to   1.
 (rs|ai) integrals will be sorted in core.
 Spin components of T(2) and E(2):
     alpha-alpha T2 =       0.0000000000D+00 E2=      0.0000000000D+00
     alpha-beta  T2 =       0.9278847910D-02 E2=     -0.1958526148D-01
     beta-beta   T2 =       0.0000000000D+00 E2=      0.0000000000D+00
 ANorm=    0.1004628711D+01
 E2 =    -0.1958526148D-01 EUMP2 =    -0.11245827019925D+01
 Keep R2 and R3 ints in memory in symmetry-blocked form, NReq=801520.
 Iterations=  50 Convergence= 0.100D-07
 Iteration Nr.   1
 **********************
 DD1Dir will call FoFMem   1 times, MxPair=         2
 NAB=     1 NAA=     0 NBB=     0.
 MP4(R+Q)=  0.18172866D-03
 E3=       -0.66297686D-02        EUMP3=      -0.11312124706D+01
 E4(DQ)=   -0.23664350D-02        UMP4(DQ)=   -0.11335789055D+01
 E4(SDQ)=  -0.24702696D-02        UMP4(SDQ)=  -0.11336827402D+01
 DE(Corr)= -0.26029930E-01 E(Corr)=     -1.1310273700    
 NORM(A)=   0.10111796D+01
 Iteration Nr.   2
 **********************
 DD1Dir will call FoFMem   1 times, MxPair=         2
 NAB=     1 NAA=     0 NBB=     0.
 DE(Corr)= -0.29646524E-01 E(CORR)=     -1.1346439646     Delta=-3.62D-03
 NORM(A)=   0.10123798D+01
 Iteration Nr.   3
 **********************
 DD1Dir will call FoFMem   1 times, MxPair=         2
 NAB=     1 NAA=     0 NBB=     0.
 DE(Corr)= -0.30176392E-01 E(CORR)=     -1.1351738322     Delta=-5.30D-04
 NORM(A)=   0.10124661D+01
 Iteration Nr.   4
 **********************
 DD1Dir will call FoFMem   1 times, MxPair=         2
 NAB=     1 NAA=     0 NBB=     0.
 DE(Corr)= -0.30209538E-01 E(CORR)=     -1.1352069781     Delta=-3.31D-05
 NORM(A)=   0.10124522D+01
 Iteration Nr.   5
 **********************
 DD1Dir will call FoFMem   1 times, MxPair=         2
 NAB=     1 NAA=     0 NBB=     0.
 DE(Corr)= -0.30203496E-01 E(CORR)=     -1.1352009368     Delta= 6.04D-06
 NORM(A)=   0.10124549D+01
 Iteration Nr.   6
 **********************
 DD1Dir will call FoFMem   1 times, MxPair=         2
 NAB=     1 NAA=     0 NBB=     0.
 DE(Corr)= -0.30204568E-01 E(CORR)=     -1.1352020086     Delta=-1.07D-06
 NORM(A)=   0.10124549D+01
 Iteration Nr.   7
 **********************
 DD1Dir will call FoFMem   1 times, MxPair=         2
 NAB=     1 NAA=     0 NBB=     0.
 DE(Corr)= -0.30204566E-01 E(CORR)=     -1.1352020067     Delta= 1.94D-09
 NORM(A)=   0.10124548D+01
 Dominant configurations:
 ***********************
 Spin Case        I    J    A    B          Value
   ABAB           1    1    2    2      -0.127616D+00
 Largest amplitude= 1.28D-01

 Z-AMPLITUDE ITERATIONS

 Iteration Nr.   1
 **********************
 DD1Dir will call FoFMem   1 times, MxPair=         2
 NAB=     1 NAA=     0 NBB=     0.
 DE(Z)  -0.29711519D-01          E(Z)=    -0.11347089592D+01
 NORM(A)=   0.10124605D+01
 Iteration Nr.   2
 **********************
 DD1Dir will call FoFMem   1 times, MxPair=         2
 NAB=     1 NAA=     0 NBB=     0.
 DE(Z)  -0.29713846D-01          E(Z)=    -0.11347112865D+01
 NORM(A)=   0.10124516D+01
 Iteration Nr.   3
 **********************
 DD1Dir will call FoFMem   1 times, MxPair=         2
 NAB=     1 NAA=     0 NBB=     0.
 DE(Z)  -0.29710199D-01          E(Z)=    -0.11347076393D+01
 NORM(A)=   0.10124470D+01
 Iteration Nr.   4
 **********************
 DD1Dir will call FoFMem   1 times, MxPair=         2
 NAB=     1 NAA=     0 NBB=     0.
 DE(Z)  -0.29708300D-01          E(Z)=    -0.11347057410D+01
 NORM(A)=   0.10123303D+01
 Iteration Nr.   5
 **********************
 DD1Dir will call FoFMem   1 times, MxPair=         2
 NAB=     1 NAA=     0 NBB=     0.
 DE(Z)  -0.29659895D-01          E(Z)=    -0.11346573360D+01
 NORM(A)=   0.10118442D+01
 Iteration Nr.   6
 **********************
 DD1Dir will call FoFMem   1 times, MxPair=         2
 NAB=     1 NAA=     0 NBB=     0.
 DE(Z)  -0.29455746D-01          E(Z)=    -0.11344531864D+01
 NORM(A)=   0.10118441D+01
 Iteration Nr.   7
 **********************
 DD1Dir will call FoFMem   1 times, MxPair=         2
 NAB=     1 NAA=     0 NBB=     0.
 DE(Z)  -0.29455712D-01          E(Z)=    -0.11344531523D+01
 NORM(A)=   0.10118441D+01
 Iteration Nr.   8
 **********************
 DD1Dir will call FoFMem   1 times, MxPair=         2
 NAB=     1 NAA=     0 NBB=     0.
 DE(Z)  -0.29455713D-01          E(Z)=    -0.11344531537D+01
 NORM(A)=   0.10118441D+01
 Discarding MO integrals.
          IDoAtm=11
          Differentiating once with respect to electric field.
                with respect to dipole field.
          Differentiating once with respect to nuclear coordinates.
 Keep R1 ints in memory in symmetry-blocked form, NReq=802419.
          There are     1 degrees of freedom in the 1st order CPHF.  IDoFFX=0 NUNeed=     1.
 LinEq1:  Iter=  0 NonCon=     1 RMS=2.03D-02 Max=3.52D-02 NDo=     1
 AX will form     1 AO Fock derivatives at one time.
 LinEq1:  Iter=  1 NonCon=     0 RMS=1.88D-18 Max=3.23D-18 NDo=     1
 Linear equations converged to 1.000D-10 1.000D-09 after     1 iterations.
 End of Minotr F.D. properties file   721 does not exist.
 End of Minotr F.D. properties file   722 does not exist.
 End of Minotr F.D. properties file   788 does not exist.
   8 Symmetry operations used in ECPInt.
 ECPInt:  NShTT=      10 NPrTT=      42 LenC2=      11 LenP2D=      42.
 LDataN:  DoStor=T MaxTD1= 2 Len=   12
 Calling FoFJK, ICntrl=  10002127 FMM=F ISym2X=1 I1Cent= 0 IOpClX= 0 NMat=1 NMatS=1 NMatT=0.
 ***** Axes restored to original set *****
 -------------------------------------------------------------------
 Center     Atomic                   Forces (Hartrees/Bohr)
 Number     Number              X              Y              Z
 -------------------------------------------------------------------
      1        1          -0.033889641   -0.048413961    0.041979503
      2        1           0.033889641    0.048413961   -0.041979503
 -------------------------------------------------------------------
 Cartesian Forces:  Max     0.048413961 RMS     0.041851714

 GradGradGradGradGradGradGradGradGradGradGradGradGradGradGradGradGradGrad
 Berny optimization.
 Using GEDIIS/GDIIS optimizer.
 Internal  Forces:  Max     0.072489296 RMS     0.072489296
 Search for a local minimum.
 Step number   2 out of a maximum of   20
 All quantities printed in internal units (Hartrees-Bohrs-Radians)
 Mixed Optimization -- RFO/linear search
 Update second derivatives using D2CorX and points    1    2
 DE= -2.41D-02 DEPred=-1.91D-02 R= 1.27D+00
 TightC=F SS=  1.41D+00  RLast= 3.00D-01 DXNew= 5.0454D-01 9.0000D-01
 Trust test= 1.27D+00 RLast= 3.00D-01 DXMaxT set to 5.05D-01
 The second derivative matrix:
                          R1
           R1           0.03925
 ITU=  1  0
 Use linear search instead of GDIIS.
     Eigenvalues ---    0.03925
 RFO step:  Lambda= 0.00000000D+00 EMin= 3.92516558D-02
 Quartic linear search produced a step of  1.28163.
 Iteration  1 RMS(Cart)=  0.14142136 RMS(Int)=  0.18448963
 Iteration  2 RMS(Cart)=  0.13045387 RMS(Int)=  0.00000000
 Iteration  3 RMS(Cart)=  0.00000000 RMS(Int)=  0.00000000
 ClnCor:  largest displacement from symmetrization is 6.38D-16 for atom     1.
 Variable       Old X    -DE/DX   Delta X   Delta X   Delta X     New X
                                 (Linear)    (Quad)   (Total)
    R1        1.77868  -0.07249  -0.38449   0.00000  -0.38449   1.39419
         Item               Value     Threshold  Converged?
 Maximum Force            0.072489     0.000450     NO 
 RMS     Force            0.072489     0.000300     NO 
 Maximum Displacement     0.128396     0.001800     NO 
 RMS     Displacement     0.271875     0.001200     NO 
 Predicted change in Energy=-2.497005D-02
 GradGradGradGradGradGradGradGradGradGradGradGradGradGradGradGradGradGrad

                          Input orientation:                          
 ---------------------------------------------------------------------
 Center     Atomic      Atomic             Coordinates (Angstroms)
 Number     Number       Type             X           Y           Z
 ---------------------------------------------------------------------
      1          1           0       -0.192430   -2.074868    1.138902
      2          1           0       -0.537350   -2.567612    1.566158
 ---------------------------------------------------------------------
 Stoichiometry    H2
 Framework group  D*H[C*(H.H)]
 Deg. of freedom     1
 Full point group                 D*H     NOp   8
 Largest Abelian subgroup         D2H     NOp   8
 Largest concise Abelian subgroup C2      NOp   2
                         Standard orientation:                         
 ---------------------------------------------------------------------
 Center     Atomic      Atomic             Coordinates (Angstroms)
 Number     Number       Type             X           Y           Z
 ---------------------------------------------------------------------
      1          1           0        0.000000    0.000000    0.368888
      2          1           0        0.000000    0.000000   -0.368888
 ---------------------------------------------------------------------
 Rotational constants (GHZ):      0.0000000   1842.5232315   1842.5232315
 Standard basis: LANL2DZ (5D, 7F)
 There are     2 symmetry adapted cartesian basis functions of AG  symmetry.
 There are     0 symmetry adapted cartesian basis functions of B1G symmetry.
 There are     0 symmetry adapted cartesian basis functions of B2G symmetry.
 There are     0 symmetry adapted cartesian basis functions of B3G symmetry.
 There are     0 symmetry adapted cartesian basis functions of AU  symmetry.
 There are     2 symmetry adapted cartesian basis functions of B1U symmetry.
 There are     0 symmetry adapted cartesian basis functions of B2U symmetry.
 There are     0 symmetry adapted cartesian basis functions of B3U symmetry.
 There are     2 symmetry adapted basis functions of AG  symmetry.
 There are     0 symmetry adapted basis functions of B1G symmetry.
 There are     0 symmetry adapted basis functions of B2G symmetry.
 There are     0 symmetry adapted basis functions of B3G symmetry.
 There are     0 symmetry adapted basis functions of AU  symmetry.
 There are     2 symmetry adapted basis functions of B1U symmetry.
 There are     0 symmetry adapted basis functions of B2U symmetry.
 There are     0 symmetry adapted basis functions of B3U symmetry.
     4 basis functions,     8 primitive gaussians,     4 cartesian basis functions
     1 alpha electrons        1 beta electrons
       nuclear repulsion energy         0.7172599688 Hartrees.
 NAtoms=    2 NActive=    2 NUniq=    1 SFac= 4.00D+00 NAtFMM=   60 NAOKFM=F Big=F
 Integral buffers will be    131072 words long.
 Raffenetti 1 integral format.
 Two-electron integral symmetry is turned on.
 One-electron integrals computed using PRISM.
   8 Symmetry operations used in ECPInt.
 ECPInt:  NShTT=      10 NPrTT=      42 LenC2=      11 LenP2D=      42.
 LDataN:  DoStor=T MaxTD1= 1 Len=    4
 NBasis=     4 RedAO= T EigKep=  1.38D-01  NBF=     2     0     0     0     0     2     0     0
 NBsUse=     4 1.00D-06 EigRej= -1.00D+00 NBFU=     2     0     0     0     0     2     0     0
 Initial guess from the checkpoint file:  "/scr/Gau-18797.chk"
 B after Tr=     0.000000    0.000000    0.000000
         Rot=    1.000000    0.000000    0.000000    0.000000 Ang=   0.00 deg.
 Initial guess orbital symmetries:
       Occupied  (SGG)
       Virtual   (SGG) (SGU) (SGU)
 ExpMin= 1.78D-01 ExpMax= 1.92D+01 ExpMxC= 1.92D+01 IAcc=1 IRadAn=         1 AccDes= 0.00D+00
 Harris functional with IExCor=  205 and IRadAn=       1 diagonalized for initial guess.
 HarFok:  IExCor=  205 AccDes= 0.00D+00 IRadAn=         1 IDoV= 1 UseB2=F ITyADJ=14
 ICtDFT=  3500011 ScaDFX=  1.000000  1.000000  1.000000  1.000000
 FoFCou: FMM=F IPFlag=           0 FMFlag=      100000 FMFlg1=           0
         NFxFlg=           0 DoJE=T BraDBF=F KetDBF=T FulRan=T
         wScrn=  0.000000 ICntrl=     500 IOpCl=  0 I1Cent=   200000004 NGrid=           0
         NMat0=    1 NMatS0=      1 NMatT0=    0 NMatD0=    1 NMtDS0=    0 NMtDT0=    0
 Petite list used in FoFCou.
 Keep R1 ints in memory in symmetry-blocked form, NReq=821740.
 Requested convergence on RMS density matrix=1.00D-08 within 128 cycles.
 Requested convergence on MAX density matrix=1.00D-06.
 Requested convergence on             energy=1.00D-06.
 No special actions if energy rises.
 SCF Done:  E(RHF) =  -1.12662463623     A.U. after    5 cycles
            NFock=  5  Conv=0.74D-11     -V/T= 1.9955
 Range of M.O.s used for correlation:     1     4
 NBasis=     4 NAE=     1 NBE=     1 NFC=     0 NFV=     0
 NROrb=      4 NOA=     1 NOB=     1 NVA=     3 NVB=     3
 Semi-Direct transformation.
 ModeAB=           4 MOrb=             1 LenV=      33499445
 LASXX=           10 LTotXX=          10 LenRXX=          29
 LTotAB=          19 MaxLAS=          24 LenRXY=           0
 NonZer=          39 LenScr=      785920 LnRSAI=          24
 LnScr1=      785920 LExtra=           0 Total=      1571893
 MaxDsk=          -1 SrtSym=           T ITran=            4
 JobTyp=0 Pass  1:  I=   1 to   1.
 (rs|ai) integrals will be sorted in core.
 Spin components of T(2) and E(2):
     alpha-alpha T2 =       0.0000000000D+00 E2=      0.0000000000D+00
     alpha-beta  T2 =       0.6535117531D-02 E2=     -0.1728018767D-01
     beta-beta   T2 =       0.0000000000D+00 E2=      0.0000000000D+00
 ANorm=    0.1003262238D+01
 E2 =    -0.1728018767D-01 EUMP2 =    -0.11439048238931D+01
 Keep R2 and R3 ints in memory in symmetry-blocked form, NReq=801520.
 Iterations=  50 Convergence= 0.100D-07
 Iteration Nr.   1
 **********************
 DD1Dir will call FoFMem   1 times, MxPair=         2
 NAB=     1 NAA=     0 NBB=     0.
 MP4(R+Q)=  0.11292806D-03
 E3=       -0.51876702D-02        EUMP3=      -0.11490924941D+01
 E4(DQ)=   -0.15866133D-02        UMP4(DQ)=   -0.11506791074D+01
 E4(SDQ)=  -0.16161574D-02        UMP4(SDQ)=  -0.11507086515D+01
 DE(Corr)= -0.22353805E-01 E(Corr)=     -1.1489784408    
 NORM(A)=   0.10068625D+01
 Iteration Nr.   2
 **********************
 DD1Dir will call FoFMem   1 times, MxPair=         2
 NAB=     1 NAA=     0 NBB=     0.
 DE(Corr)= -0.24632561E-01 E(CORR)=     -1.1512571974     Delta=-2.28D-03
 NORM(A)=   0.10072280D+01
 Iteration Nr.   3
 **********************
 DD1Dir will call FoFMem   1 times, MxPair=         2
 NAB=     1 NAA=     0 NBB=     0.
 DE(Corr)= -0.24823123E-01 E(CORR)=     -1.1514477596     Delta=-1.91D-04
 NORM(A)=   0.10072652D+01
 Iteration Nr.   4
 **********************
 DD1Dir will call FoFMem   1 times, MxPair=         2
 NAB=     1 NAA=     0 NBB=     0.
 DE(Corr)= -0.24840049E-01 E(CORR)=     -1.1514646848     Delta=-1.69D-05
 NORM(A)=   0.10072587D+01
 Iteration Nr.   5
 **********************
 DD1Dir will call FoFMem   1 times, MxPair=         2
 NAB=     1 NAA=     0 NBB=     0.
 DE(Corr)= -0.24836668E-01 E(CORR)=     -1.1514613043     Delta= 3.38D-06
 NORM(A)=   0.10072596D+01
 Iteration Nr.   6
 **********************
 DD1Dir will call FoFMem   1 times, MxPair=         2
 NAB=     1 NAA=     0 NBB=     0.
 DE(Corr)= -0.24837116E-01 E(CORR)=     -1.1514617518     Delta=-4.47D-07
 NORM(A)=   0.10072594D+01
 Iteration Nr.   7
 **********************
 DD1Dir will call FoFMem   1 times, MxPair=         2
 NAB=     1 NAA=     0 NBB=     0.
 DE(Corr)= -0.24837025E-01 E(CORR)=     -1.1514616611     Delta= 9.07D-08
 NORM(A)=   0.10072594D+01
 Iteration Nr.   8
 **********************
 DD1Dir will call FoFMem   1 times, MxPair=         2
 NAB=     1 NAA=     0 NBB=     0.
 DE(Corr)= -0.24837031E-01 E(CORR)=     -1.1514616672     Delta=-6.06D-09
 NORM(A)=   0.10072594D+01
 Largest amplitude= 8.13D-02

 Z-AMPLITUDE ITERATIONS

 Iteration Nr.   1
 **********************
 DD1Dir will call FoFMem   1 times, MxPair=         2
 NAB=     1 NAA=     0 NBB=     0.
 DE(Z)  -0.24585223D-01          E(Z)=    -0.11512098592D+01
 NORM(A)=   0.10072594D+01
 Iteration Nr.   2
 **********************
 DD1Dir will call FoFMem   1 times, MxPair=         2
 NAB=     1 NAA=     0 NBB=     0.
 DE(Z)  -0.24585229D-01          E(Z)=    -0.11512098650D+01
 NORM(A)=   0.10072594D+01
 Iteration Nr.   3
 **********************
 DD1Dir will call FoFMem   1 times, MxPair=         2
 NAB=     1 NAA=     0 NBB=     0.
 DE(Z)  -0.24585247D-01          E(Z)=    -0.11512098831D+01
 NORM(A)=   0.10072594D+01
 Iteration Nr.   4
 **********************
 DD1Dir will call FoFMem   1 times, MxPair=         2
 NAB=     1 NAA=     0 NBB=     0.
 DE(Z)  -0.24585252D-01          E(Z)=    -0.11512098877D+01
 NORM(A)=   0.10072594D+01
 Iteration Nr.   5
 **********************
 DD1Dir will call FoFMem   1 times, MxPair=         2
 NAB=     1 NAA=     0 NBB=     0.
 DE(Z)  -0.24585244D-01          E(Z)=    -0.11512098799D+01
 NORM(A)=   0.10070487D+01
 Iteration Nr.   6
 **********************
 DD1Dir will call FoFMem   1 times, MxPair=         2
 NAB=     1 NAA=     0 NBB=     0.
 DE(Z)  -0.24477264D-01          E(Z)=    -0.11511019003D+01
 NORM(A)=   0.10070487D+01
 Iteration Nr.   7
 **********************
 DD1Dir will call FoFMem   1 times, MxPair=         2
 NAB=     1 NAA=     0 NBB=     0.
 DE(Z)  -0.24477260D-01          E(Z)=    -0.11511018967D+01
 NORM(A)=   0.10070487D+01
 Discarding MO integrals.
          IDoAtm=11
          Differentiating once with respect to electric field.
                with respect to dipole field.
          Differentiating once with respect to nuclear coordinates.
 Keep R1 ints in memory in symmetry-blocked form, NReq=802419.
          There are     1 degrees of freedom in the 1st order CPHF.  IDoFFX=0 NUNeed=     1.
 LinEq1:  Iter=  0 NonCon=     1 RMS=1.05D-02 Max=1.82D-02 NDo=     1
 AX will form     1 AO Fock derivatives at one time.
 LinEq1:  Iter=  1 NonCon=     0 RMS=3.33D-18 Max=5.17D-18 NDo=     1
 Linear equations converged to 1.000D-10 1.000D-09 after     1 iterations.
 End of Minotr F.D. properties file   721 does not exist.
 End of Minotr F.D. properties file   722 does not exist.
 End of Minotr F.D. properties file   788 does not exist.
   8 Symmetry operations used in ECPInt.
 ECPInt:  NShTT=      10 NPrTT=      42 LenC2=      11 LenP2D=      42.
 LDataN:  DoStor=T MaxTD1= 2 Len=   12
 Calling FoFJK, ICntrl=  10002127 FMM=F ISym2X=1 I1Cent= 0 IOpClX= 0 NMat=1 NMatS=1 NMatT=0.
 ***** Axes restored to original set *****
 -------------------------------------------------------------------
 Center     Atomic                   Forces (Hartrees/Bohr)
 Number     Number              X              Y              Z
 -------------------------------------------------------------------
      1        1           0.003150152    0.004500235   -0.003902131
      2        1          -0.003150152   -0.004500235    0.003902131
 -------------------------------------------------------------------
 Cartesian Forces:  Max     0.004500235 RMS     0.003890253

 GradGradGradGradGradGradGradGradGradGradGradGradGradGradGradGradGradGrad
 Berny optimization.
 Using GEDIIS/GDIIS optimizer.
 Internal  Forces:  Max     0.006738115 RMS     0.006738115
 Search for a local minimum.
 Step number   3 out of a maximum of   20
 All quantities printed in internal units (Hartrees-Bohrs-Radians)
 Mixed Optimization -- RFO/linear search
 Update second derivatives using D2CorX and points    2    3
 DE= -1.63D-02 DEPred=-2.50D-02 R= 6.51D-01
 TightC=F SS=  1.41D+00  RLast= 3.84D-01 DXNew= 8.4853D-01 1.1535D+00
 Trust test= 6.51D-01 RLast= 3.84D-01 DXMaxT set to 8.49D-01
 The second derivative matrix:
                          R1
           R1           0.20606
 ITU=  1  1
 Use linear search instead of GDIIS.
     Eigenvalues ---    0.20606
 RFO step:  Lambda= 0.00000000D+00 EMin= 2.06058641D-01
 Quartic linear search produced a step of -0.04847.
 Iteration  1 RMS(Cart)=  0.01317901 RMS(Int)=  0.00000000
 Iteration  2 RMS(Cart)=  0.00000000 RMS(Int)=  0.00000000
 ClnCor:  largest displacement from symmetrization is 2.22D-16 for atom     2.
 Variable       Old X    -DE/DX   Delta X   Delta X   Delta X     New X
                                 (Linear)    (Quad)   (Total)
    R1        1.39419   0.00674   0.01864   0.00000   0.01864   1.41283
         Item               Value     Threshold  Converged?
 Maximum Force            0.006738     0.000450     NO 
 RMS     Force            0.006738     0.000300     NO 
 Maximum Displacement     0.006224     0.001800     NO 
 RMS     Displacement     0.013179     0.001200     NO 
 Predicted change in Energy=-8.979499D-05
 GradGradGradGradGradGradGradGradGradGradGradGradGradGradGradGradGradGrad

                          Input orientation:                          
 ---------------------------------------------------------------------
 Center     Atomic      Atomic             Coordinates (Angstroms)
 Number     Number       Type             X           Y           Z
 ---------------------------------------------------------------------
      1          1           0       -0.190125   -2.071574    1.136046
      2          1           0       -0.539655   -2.570906    1.569014
 ---------------------------------------------------------------------
 Stoichiometry    H2
 Framework group  D*H[C*(H.H)]
 Deg. of freedom     1
 Full point group                 D*H     NOp   8
 Largest Abelian subgroup         D2H     NOp   8
 Largest concise Abelian subgroup C2      NOp   2
                         Standard orientation:                         
 ---------------------------------------------------------------------
 Center     Atomic      Atomic             Coordinates (Angstroms)
 Number     Number       Type             X           Y           Z
 ---------------------------------------------------------------------
      1          1           0        0.000000    0.000000    0.373819
      2          1           0        0.000000    0.000000   -0.373819
 ---------------------------------------------------------------------
 Rotational constants (GHZ):      0.0000000   1794.2311469   1794.2311469
 Standard basis: LANL2DZ (5D, 7F)
 There are     2 symmetry adapted cartesian basis functions of AG  symmetry.
 There are     0 symmetry adapted cartesian basis functions of B1G symmetry.
 There are     0 symmetry adapted cartesian basis functions of B2G symmetry.
 There are     0 symmetry adapted cartesian basis functions of B3G symmetry.
 There are     0 symmetry adapted cartesian basis functions of AU  symmetry.
 There are     2 symmetry adapted cartesian basis functions of B1U symmetry.
 There are     0 symmetry adapted cartesian basis functions of B2U symmetry.
 There are     0 symmetry adapted cartesian basis functions of B3U symmetry.
 There are     2 symmetry adapted basis functions of AG  symmetry.
 There are     0 symmetry adapted basis functions of B1G symmetry.
 There are     0 symmetry adapted basis functions of B2G symmetry.
 There are     0 symmetry adapted basis functions of B3G symmetry.
 There are     0 symmetry adapted basis functions of AU  symmetry.
 There are     2 symmetry adapted basis functions of B1U symmetry.
 There are     0 symmetry adapted basis functions of B2U symmetry.
 There are     0 symmetry adapted basis functions of B3U symmetry.
     4 basis functions,     8 primitive gaussians,     4 cartesian basis functions
     1 alpha electrons        1 beta electrons
       nuclear repulsion energy         0.7077979534 Hartrees.
 NAtoms=    2 NActive=    2 NUniq=    1 SFac= 4.00D+00 NAtFMM=   60 NAOKFM=F Big=F
 Integral buffers will be    131072 words long.
 Raffenetti 1 integral format.
 Two-electron integral symmetry is turned on.
 One-electron integrals computed using PRISM.
   8 Symmetry operations used in ECPInt.
 ECPInt:  NShTT=      10 NPrTT=      42 LenC2=      11 LenP2D=      42.
 LDataN:  DoStor=T MaxTD1= 1 Len=    4
 NBasis=     4 RedAO= T EigKep=  1.41D-01  NBF=     2     0     0     0     0     2     0     0
 NBsUse=     4 1.00D-06 EigRej= -1.00D+00 NBFU=     2     0     0     0     0     2     0     0
 Initial guess from the checkpoint file:  "/scr/Gau-18797.chk"
 B after Tr=     0.000000    0.000000    0.000000
         Rot=    1.000000    0.000000    0.000000    0.000000 Ang=   0.00 deg.
 Initial guess orbital symmetries:
       Occupied  (SGG)
       Virtual   (SGG) (SGU) (SGU)
 Keep R1 ints in memory in symmetry-blocked form, NReq=821740.
 Requested convergence on RMS density matrix=1.00D-08 within 128 cycles.
 Requested convergence on MAX density matrix=1.00D-06.
 Requested convergence on             energy=1.00D-06.
 No special actions if energy rises.
 SCF Done:  E(RHF) =  -1.12646156146     A.U. after    4 cycles
            NFock=  4  Conv=0.64D-12     -V/T= 2.0039
 Range of M.O.s used for correlation:     1     4
 NBasis=     4 NAE=     1 NBE=     1 NFC=     0 NFV=     0
 NROrb=      4 NOA=     1 NOB=     1 NVA=     3 NVB=     3
 Semi-Direct transformation.
 ModeAB=           4 MOrb=             1 LenV=      33499445
 LASXX=           10 LTotXX=          10 LenRXX=          29
 LTotAB=          19 MaxLAS=          24 LenRXY=           0
 NonZer=          39 LenScr=      785920 LnRSAI=          24
 LnScr1=      785920 LExtra=           0 Total=      1571893
 MaxDsk=          -1 SrtSym=           T ITran=            4
 JobTyp=0 Pass  1:  I=   1 to   1.
 (rs|ai) integrals will be sorted in core.
 Spin components of T(2) and E(2):
     alpha-alpha T2 =       0.0000000000D+00 E2=      0.0000000000D+00
     alpha-beta  T2 =       0.6643360179D-02 E2=     -0.1738425897D-01
     beta-beta   T2 =       0.0000000000D+00 E2=      0.0000000000D+00
 ANorm=    0.1003316182D+01
 E2 =    -0.1738425897D-01 EUMP2 =    -0.11438458204331D+01
 Keep R2 and R3 ints in memory in symmetry-blocked form, NReq=801520.
 Iterations=  50 Convergence= 0.100D-07
 Iteration Nr.   1
 **********************
 DD1Dir will call FoFMem   1 times, MxPair=         2
 NAB=     1 NAA=     0 NBB=     0.
 MP4(R+Q)=  0.11548989D-03
 E3=       -0.52475168D-02        EUMP3=      -0.11490933373D+01
 E4(DQ)=   -0.16166232D-02        UMP4(DQ)=   -0.11507099605D+01
 E4(SDQ)=  -0.16486986D-02        UMP4(SDQ)=  -0.11507420359D+01
 DE(Corr)= -0.22515073E-01 E(Corr)=     -1.1489766340    
 NORM(A)=   0.10070185D+01
 Iteration Nr.   2
 **********************
 DD1Dir will call FoFMem   1 times, MxPair=         2
 NAB=     1 NAA=     0 NBB=     0.
 DE(Corr)= -0.24843449E-01 E(CORR)=     -1.1513050103     Delta=-2.33D-03
 NORM(A)=   0.10074093D+01
 Iteration Nr.   3
 **********************
 DD1Dir will call FoFMem   1 times, MxPair=         2
 NAB=     1 NAA=     0 NBB=     0.
 DE(Corr)= -0.25045515E-01 E(CORR)=     -1.1515070763     Delta=-2.02D-04
 NORM(A)=   0.10074483D+01
 Iteration Nr.   4
 **********************
 DD1Dir will call FoFMem   1 times, MxPair=         2
 NAB=     1 NAA=     0 NBB=     0.
 DE(Corr)= -0.25063099E-01 E(CORR)=     -1.1515246605     Delta=-1.76D-05
 NORM(A)=   0.10074415D+01
 Iteration Nr.   5
 **********************
 DD1Dir will call FoFMem   1 times, MxPair=         2
 NAB=     1 NAA=     0 NBB=     0.
 DE(Corr)= -0.25059609E-01 E(CORR)=     -1.1515211700     Delta= 3.49D-06
 NORM(A)=   0.10074424D+01
 Iteration Nr.   6
 **********************
 DD1Dir will call FoFMem   1 times, MxPair=         2
 NAB=     1 NAA=     0 NBB=     0.
 DE(Corr)= -0.25060084E-01 E(CORR)=     -1.1515216459     Delta=-4.76D-07
 NORM(A)=   0.10074422D+01
 Iteration Nr.   7
 **********************
 DD1Dir will call FoFMem   1 times, MxPair=         2
 NAB=     1 NAA=     0 NBB=     0.
 DE(Corr)= -0.25059990E-01 E(CORR)=     -1.1515215515     Delta= 9.43D-08
 NORM(A)=   0.10074422D+01
 Iteration Nr.   8
 **********************
 DD1Dir will call FoFMem   1 times, MxPair=         2
 NAB=     1 NAA=     0 NBB=     0.
 DE(Corr)= -0.25059997E-01 E(CORR)=     -1.1515215580     Delta=-6.51D-09
 NORM(A)=   0.10074422D+01
 Largest amplitude= 8.33D-02

 Z-AMPLITUDE ITERATIONS

 Iteration Nr.   1
 **********************
 DD1Dir will call FoFMem   1 times, MxPair=         2
 NAB=     1 NAA=     0 NBB=     0.
 DE(Z)  -0.24800238D-01          E(Z)=    -0.11512617996D+01
 NORM(A)=   0.10074422D+01
 Iteration Nr.   2
 **********************
 DD1Dir will call FoFMem   1 times, MxPair=         2
 NAB=     1 NAA=     0 NBB=     0.
 DE(Z)  -0.24800228D-01          E(Z)=    -0.11512617898D+01
 NORM(A)=   0.10074422D+01
 Iteration Nr.   3
 **********************
 DD1Dir will call FoFMem   1 times, MxPair=         2
 NAB=     1 NAA=     0 NBB=     0.
 DE(Z)  -0.24800233D-01          E(Z)=    -0.11512617949D+01
 NORM(A)=   0.10074422D+01
 Iteration Nr.   4
 **********************
 DD1Dir will call FoFMem   1 times, MxPair=         2
 NAB=     1 NAA=     0 NBB=     0.
 DE(Z)  -0.24800242D-01          E(Z)=    -0.11512618031D+01
 NORM(A)=   0.10074423D+01
 Iteration Nr.   5
 **********************
 DD1Dir will call FoFMem   1 times, MxPair=         2
 NAB=     1 NAA=     0 NBB=     0.
 DE(Z)  -0.24800253D-01          E(Z)=    -0.11512618140D+01
 NORM(A)=   0.10072205D+01
 Iteration Nr.   6
 **********************
 DD1Dir will call FoFMem   1 times, MxPair=         2
 NAB=     1 NAA=     0 NBB=     0.
 DE(Z)  -0.24687757D-01          E(Z)=    -0.11511493184D+01
 NORM(A)=   0.10072206D+01
 Iteration Nr.   7
 **********************
 DD1Dir will call FoFMem   1 times, MxPair=         2
 NAB=     1 NAA=     0 NBB=     0.
 DE(Z)  -0.24687771D-01          E(Z)=    -0.11511493328D+01
 NORM(A)=   0.10072208D+01
 Iteration Nr.   8
 **********************
 DD1Dir will call FoFMem   1 times, MxPair=         2
 NAB=     1 NAA=     0 NBB=     0.
 DE(Z)  -0.24687793D-01          E(Z)=    -0.11511493545D+01
 NORM(A)=   0.10072208D+01
 Iteration Nr.   9
 **********************
 DD1Dir will call FoFMem   1 times, MxPair=         2
 NAB=     1 NAA=     0 NBB=     0.
 DE(Z)  -0.24687797D-01          E(Z)=    -0.11511493581D+01
 NORM(A)=   0.10072208D+01
 Discarding MO integrals.
          IDoAtm=11
          Differentiating once with respect to electric field.
                with respect to dipole field.
          Differentiating once with respect to nuclear coordinates.
 Keep R1 ints in memory in symmetry-blocked form, NReq=802419.
          There are     1 degrees of freedom in the 1st order CPHF.  IDoFFX=0 NUNeed=     1.
 LinEq1:  Iter=  0 NonCon=     1 RMS=1.09D-02 Max=1.90D-02 NDo=     1
 AX will form     1 AO Fock derivatives at one time.
 LinEq1:  Iter=  1 NonCon=     0 RMS=1.23D-18 Max=2.02D-18 NDo=     1
 Linear equations converged to 1.000D-10 1.000D-09 after     1 iterations.
 End of Minotr F.D. properties file   721 does not exist.
 End of Minotr F.D. properties file   722 does not exist.
 End of Minotr F.D. properties file   788 does not exist.
   8 Symmetry operations used in ECPInt.
 ECPInt:  NShTT=      10 NPrTT=      42 LenC2=      11 LenP2D=      42.
 LDataN:  DoStor=T MaxTD1= 2 Len=   12
 Calling FoFJK, ICntrl=  10002127 FMM=F ISym2X=1 I1Cent= 0 IOpClX= 0 NMat=1 NMatS=1 NMatT=0.
 ***** Axes restored to original set *****
 -------------------------------------------------------------------
 Center     Atomic                   Forces (Hartrees/Bohr)
 Number     Number              X              Y              Z
 -------------------------------------------------------------------
      1        1          -0.000109740   -0.000156772    0.000135937
      2        1           0.000109740    0.000156772   -0.000135937
 -------------------------------------------------------------------
 Cartesian Forces:  Max     0.000156772 RMS     0.000135523

 GradGradGradGradGradGradGradGradGradGradGradGradGradGradGradGradGradGrad
 Berny optimization.
 Using GEDIIS/GDIIS optimizer.
 Internal  Forces:  Max     0.000234732 RMS     0.000234732
 Search for a local minimum.
 Step number   4 out of a maximum of   20
 All quantities printed in internal units (Hartrees-Bohrs-Radians)
 Mixed Optimization -- En-DIIS/RFO-DIIS
 Update second derivatives using D2CorX and points    3    4
 DE= -5.99D-05 DEPred=-8.98D-05 R= 6.67D-01
 TightC=F SS=  1.41D+00  RLast= 1.86D-02 DXNew= 1.4270D+00 5.5914D-02
 Trust test= 6.67D-01 RLast= 1.86D-02 DXMaxT set to 8.49D-01
 The second derivative matrix:
                          R1
           R1           0.37412
 ITU=  1  1
 Use linear search instead of GDIIS.
     Eigenvalues ---    0.37412
 RFO step:  Lambda= 0.00000000D+00 EMin= 3.74121285D-01
 Quartic linear search produced a step of -0.03476.
 Iteration  1 RMS(Cart)=  0.00045816 RMS(Int)=  0.00000000
 Iteration  2 RMS(Cart)=  0.00000000 RMS(Int)=  0.00000000
 ClnCor:  largest displacement from symmetrization is 5.24D-16 for atom     1.
 Variable       Old X    -DE/DX   Delta X   Delta X   Delta X     New X
                                 (Linear)    (Quad)   (Total)
    R1        1.41283  -0.00023  -0.00065   0.00000  -0.00065   1.41218
         Item               Value     Threshold  Converged?
 Maximum Force            0.000235     0.000450     YES
 RMS     Force            0.000235     0.000300     YES
 Maximum Displacement     0.000216     0.001800     YES
 RMS     Displacement     0.000458     0.001200     YES
 Predicted change in Energy=-7.355949D-08
 Optimization completed.
    -- Stationary point found.
                           ----------------------------
                           !   Optimized Parameters   !
                           ! (Angstroms and Degrees)  !
 --------------------------                            --------------------------
 ! Name  Definition              Value          Derivative Info.                !
 --------------------------------------------------------------------------------
 ! R1    R(1,2)                  0.7476         -DE/DX =   -0.0002              !
 --------------------------------------------------------------------------------
 GradGradGradGradGradGradGradGradGradGradGradGradGradGradGradGradGradGrad

                          Input orientation:                          
 ---------------------------------------------------------------------
 Center     Atomic      Atomic             Coordinates (Angstroms)
 Number     Number       Type             X           Y           Z
 ---------------------------------------------------------------------
      1          1           0       -0.190125   -2.071574    1.136046
      2          1           0       -0.539655   -2.570906    1.569014
 ---------------------------------------------------------------------
 Stoichiometry    H2
 Framework group  D*H[C*(H.H)]
 Deg. of freedom     1
 Full point group                 D*H     NOp   8
 Largest Abelian subgroup         D2H     NOp   8
 Largest concise Abelian subgroup C2      NOp   2
                         Standard orientation:                         
 ---------------------------------------------------------------------
 Center     Atomic      Atomic             Coordinates (Angstroms)
 Number     Number       Type             X           Y           Z
 ---------------------------------------------------------------------
      1          1           0        0.000000    0.000000    0.373819
      2          1           0        0.000000    0.000000   -0.373819
 ---------------------------------------------------------------------
 Rotational constants (GHZ):      0.0000000   1794.2311469   1794.2311469

 **********************************************************************

            Population analysis using the SCF density.

 **********************************************************************

 Orbital symmetries:
       Occupied  (SGG)
       Virtual   (SGU) (SGG) (SGU)
 The electronic state is 1-SGG.
 Alpha  occ. eigenvalues --   -0.59070
 Alpha virt. eigenvalues --    0.25784   0.85634   1.47200
          Condensed to atoms (all electrons):
               1          2
     1  H    0.597434   0.402566
     2  H    0.402566   0.597434
 Mulliken charges:
               1
     1  H    0.000000
     2  H    0.000000
 Sum of Mulliken charges =   0.00000
 Mulliken charges with hydrogens summed into heavy atoms:
               1
 Electronic spatial extent (au):  <R**2>=              5.0817
 Charge=              0.0000 electrons
 Dipole moment (field-independent basis, Debye):
    X=              0.0000    Y=              0.0000    Z=              0.0000  Tot=              0.0000
 Quadrupole moment (field-independent basis, Debye-Ang):
   XX=             -1.9770   YY=             -1.9770   ZZ=             -1.5387
   XY=              0.0000   XZ=              0.0000   YZ=              0.0000
 Traceless Quadrupole moment (field-independent basis, Debye-Ang):
   XX=             -0.1461   YY=             -0.1461   ZZ=              0.2922
   XY=              0.0000   XZ=              0.0000   YZ=              0.0000
 Octapole moment (field-independent basis, Debye-Ang**2):
  XXX=              0.0000  YYY=              0.0000  ZZZ=              0.0000  XYY=              0.0000
  XXY=              0.0000  XXZ=              0.0000  XZZ=              0.0000  YZZ=              0.0000
  YYZ=              0.0000  XYZ=              0.0000
 Hexadecapole moment (field-independent basis, Debye-Ang**3):
 XXXX=             -1.6973 YYYY=             -1.6973 ZZZZ=             -2.6481 XXXY=              0.0000
 XXXZ=              0.0000 YYYX=              0.0000 YYYZ=              0.0000 ZZZX=              0.0000
 ZZZY=              0.0000 XXYY=             -0.5658 XXZZ=             -0.7358 YYZZ=             -0.7358
 XXYZ=              0.0000 YYXZ=              0.0000 ZZXY=              0.0000
 N-N= 7.077979534285D-01 E-N=-3.609248562973D+00  KE= 1.122123508170D+00
 Symmetry AG   KE= 1.122123508170D+00
 Symmetry B1G  KE= 0.000000000000D+00
 Symmetry B2G  KE= 0.000000000000D+00
 Symmetry B3G  KE= 0.000000000000D+00
 Symmetry AU   KE= 0.000000000000D+00
 Symmetry B1U  KE= 1.081433879192D-32
 Symmetry B2U  KE= 0.000000000000D+00
 Symmetry B3U  KE= 0.000000000000D+00
 1\1\GINC-N0299\FOpt\RCCSD-FC\LANL2DZ\H2\TAIYUPAN\24-Feb-2017\0\\#n CCS
 D/LANL2DZ Opt\\Title\\0,1\H,-0.1901248161,-2.0715744806,1.1360462808\H
 ,-0.5396551839,-2.5709055194,1.5690137192\\Version=ES64L-G09RevE.01\St
 ate=1-SGG\HF=-1.1264616\MP2=-1.1438458\MP3=-1.1490933\MP4D=-1.1508255\
 MP4DQ=-1.15071\MP4SDQ=-1.150742\CCSD=-1.1515216\RMSD=6.438e-13\RMSF=1.
 355e-04\Dipole=0.,0.,0.\PG=D*H [C*(H1.H1)]\\@


      TO SUSPECT YOUR OWN MORTALITY IS TO KNOW THE BEGINNING OF TERROR.
      TO LEARN IRREFUTABLY THAT YOU ARE MORTAL IS TO KNOW THE END
      OF TERROR.

                                                  -- JESSICA
                                                     CHILDREN OF DUNE
                                                     BY FRANK HERBERT
 Job cpu time:       0 days  0 hours  0 minutes 30.7 seconds.
 File lengths (MBytes):  RWF=     18 Int=      0 D2E=      0 Chk=      1 Scr=      1
 Normal termination of Gaussian 09 at Fri Feb 24 00:05:15 2017.
