 Entering Gaussian System, Link 0=g09
 Input=HH_M062X_L.com
 Output=HH_M062X_L.log
 Initial command:
 /sw/contrib/gaussian/g09/E01/g09/l1.exe "/scr/Gau-22016.inp" -scrdir="/scr/"
 Entering Link 1 = /sw/contrib/gaussian/g09/E01/g09/l1.exe PID=     22017.
  
 Copyright (c) 1988,1990,1992,1993,1995,1998,2003,2009,2015,
            Gaussian, Inc.  All Rights Reserved.
  
 This is part of the Gaussian(R) 09 program.  It is based on
 the Gaussian(R) 03 system (copyright 2003, Gaussian, Inc.),
 the Gaussian(R) 98 system (copyright 1998, Gaussian, Inc.),
 the Gaussian(R) 94 system (copyright 1995, Gaussian, Inc.),
 the Gaussian 92(TM) system (copyright 1992, Gaussian, Inc.),
 the Gaussian 90(TM) system (copyright 1990, Gaussian, Inc.),
 the Gaussian 88(TM) system (copyright 1988, Gaussian, Inc.),
 the Gaussian 86(TM) system (copyright 1986, Carnegie Mellon
 University), and the Gaussian 82(TM) system (copyright 1983,
 Carnegie Mellon University). Gaussian is a federally registered
 trademark of Gaussian, Inc.
  
 This software contains proprietary and confidential information,
 including trade secrets, belonging to Gaussian, Inc.
  
 This software is provided under written license and may be
 used, copied, transmitted, or stored only in accord with that
 written license.
  
 The following legend is applicable only to US Government
 contracts under FAR:
  
                    RESTRICTED RIGHTS LEGEND
  
 Use, reproduction and disclosure by the US Government is
 subject to restrictions as set forth in subparagraphs (a)
 and (c) of the Commercial Computer Software - Restricted
 Rights clause in FAR 52.227-19.
  
 Gaussian, Inc.
 340 Quinnipiac St., Bldg. 40, Wallingford CT 06492
  
  
 ---------------------------------------------------------------
 Warning -- This program may not be used in any manner that
 competes with the business of Gaussian, Inc. or will provide
 assistance to any competitor of Gaussian, Inc.  The licensee
 of this program is prohibited from giving any competitor of
 Gaussian, Inc. access to this program.  By using this program,
 the user acknowledges that Gaussian, Inc. is engaged in the
 business of creating and licensing software in the field of
 computational chemistry and represents and warrants to the
 licensee that it is not a competitor of Gaussian, Inc. and that
 it will not use this program in any manner prohibited above.
 ---------------------------------------------------------------
  

 Cite this work as:
 Gaussian 09, Revision E.01,
 M. J. Frisch, G. W. Trucks, H. B. Schlegel, G. E. Scuseria, 
 M. A. Robb, J. R. Cheeseman, G. Scalmani, V. Barone, B. Mennucci, 
 G. A. Petersson, H. Nakatsuji, M. Caricato, X. Li, H. P. Hratchian, 
 A. F. Izmaylov, J. Bloino, G. Zheng, J. L. Sonnenberg, M. Hada, 
 M. Ehara, K. Toyota, R. Fukuda, J. Hasegawa, M. Ishida, T. Nakajima, 
 Y. Honda, O. Kitao, H. Nakai, T. Vreven, J. A. Montgomery, Jr., 
 J. E. Peralta, F. Ogliaro, M. Bearpark, J. J. Heyd, E. Brothers, 
 K. N. Kudin, V. N. Staroverov, T. Keith, R. Kobayashi, J. Normand, 
 K. Raghavachari, A. Rendell, J. C. Burant, S. S. Iyengar, J. Tomasi, 
 M. Cossi, N. Rega, J. M. Millam, M. Klene, J. E. Knox, J. B. Cross, 
 V. Bakken, C. Adamo, J. Jaramillo, R. Gomperts, R. E. Stratmann, 
 O. Yazyev, A. J. Austin, R. Cammi, C. Pomelli, J. W. Ochterski, 
 R. L. Martin, K. Morokuma, V. G. Zakrzewski, G. A. Voth, 
 P. Salvador, J. J. Dannenberg, S. Dapprich, A. D. Daniels, 
 O. Farkas, J. B. Foresman, J. V. Ortiz, J. Cioslowski, 
 and D. J. Fox, Gaussian, Inc., Wallingford CT, 2013.
 
 ******************************************
 Gaussian 09:  ES64L-G09RevE.01 30-Nov-2015
                24-Feb-2017 
 ******************************************
 %NProcShared=8
 Will use up to    8 processors via shared memory.
 --------------------
 #n M062X/LANL2DZ Opt
 --------------------
 1/14=-1,18=20,19=15,26=3,38=1/1,3;
 2/9=110,12=2,17=6,18=5,40=1/2;
 3/5=6,6=3,11=2,16=1,25=1,30=1,71=1,74=-55/1,2,3;
 4//1;
 5/5=2,38=5/2;
 6/7=2,8=2,9=2,10=2,28=1/1;
 7//1,2,3,16;
 1/14=-1,18=20,19=15,26=3/3(2);
 2/9=110/2;
 99//99;
 2/9=110/2;
 3/5=6,6=3,11=2,16=1,25=1,30=1,71=1,74=-55/1,2,3;
 4/5=5,16=3,69=1/1;
 5/5=2,38=5/2;
 7//1,2,3,16;
 1/14=-1,18=20,19=15,26=3/3(-5);
 2/9=110/2;
 6/7=2,8=2,9=2,10=2,19=2,28=1/1;
 99/9=1/99;
 -----
 Title
 -----
 Symbolic Z-matrix:
 Charge =  0 Multiplicity = 1
 H                    -0.10776  -1.95391   1.03402 
 H                    -0.62202  -2.68857   1.67104 
 
 Add virtual bond connecting atoms H2         and H1         Dist= 2.08D+00.

 GradGradGradGradGradGradGradGradGradGradGradGradGradGradGradGradGradGrad
 Berny optimization.
 Initialization pass.
                           ----------------------------
                           !    Initial Parameters    !
                           ! (Angstroms and Degrees)  !
 --------------------------                            --------------------------
 ! Name  Definition              Value          Derivative Info.                !
 --------------------------------------------------------------------------------
 ! R1    R(1,2)                  1.1            estimate D2E/DX2                !
 --------------------------------------------------------------------------------
 Trust Radius=3.00D-01 FncErr=1.00D-07 GrdErr=1.00D-06
 Number of steps in this run=     20 maximum allowed number of steps=    100.
 GradGradGradGradGradGradGradGradGradGradGradGradGradGradGradGradGradGrad

                          Input orientation:                          
 ---------------------------------------------------------------------
 Center     Atomic      Atomic             Coordinates (Angstroms)
 Number     Number       Type             X           Y           Z
 ---------------------------------------------------------------------
      1          1           0       -0.107760   -1.953910    1.034020
      2          1           0       -0.622020   -2.688570    1.671040
 ---------------------------------------------------------------------
 Stoichiometry    H2
 Framework group  D*H[C*(H.H)]
 Deg. of freedom     1
 Full point group                 D*H     NOp   8
 Largest Abelian subgroup         D2H     NOp   8
 Largest concise Abelian subgroup C2      NOp   2
                         Standard orientation:                         
 ---------------------------------------------------------------------
 Center     Atomic      Atomic             Coordinates (Angstroms)
 Number     Number       Type             X           Y           Z
 ---------------------------------------------------------------------
      1          1           0        0.000000    0.000000    0.549996
      2          1           0        0.000000    0.000000   -0.549996
 ---------------------------------------------------------------------
 Rotational constants (GHZ):      0.0000000    828.8629522    828.8629522
 Standard basis: LANL2DZ (5D, 7F)
 There are     2 symmetry adapted cartesian basis functions of AG  symmetry.
 There are     0 symmetry adapted cartesian basis functions of B1G symmetry.
 There are     0 symmetry adapted cartesian basis functions of B2G symmetry.
 There are     0 symmetry adapted cartesian basis functions of B3G symmetry.
 There are     0 symmetry adapted cartesian basis functions of AU  symmetry.
 There are     2 symmetry adapted cartesian basis functions of B1U symmetry.
 There are     0 symmetry adapted cartesian basis functions of B2U symmetry.
 There are     0 symmetry adapted cartesian basis functions of B3U symmetry.
 There are     2 symmetry adapted basis functions of AG  symmetry.
 There are     0 symmetry adapted basis functions of B1G symmetry.
 There are     0 symmetry adapted basis functions of B2G symmetry.
 There are     0 symmetry adapted basis functions of B3G symmetry.
 There are     0 symmetry adapted basis functions of AU  symmetry.
 There are     2 symmetry adapted basis functions of B1U symmetry.
 There are     0 symmetry adapted basis functions of B2U symmetry.
 There are     0 symmetry adapted basis functions of B3U symmetry.
     4 basis functions,     8 primitive gaussians,     4 cartesian basis functions
     1 alpha electrons        1 beta electrons
       nuclear repulsion energy         0.4810735405 Hartrees.
 NAtoms=    2 NActive=    2 NUniq=    1 SFac= 4.00D+00 NAtFMM=   60 NAOKFM=F Big=F
 Integral buffers will be    131072 words long.
 Raffenetti 2 integral format.
 Two-electron integral symmetry is turned on.
 One-electron integrals computed using PRISM.
   8 Symmetry operations used in ECPInt.
 ECPInt:  NShTT=      10 NPrTT=      42 LenC2=      11 LenP2D=      42.
 LDataN:  DoStor=T MaxTD1= 1 Len=    4
 NBasis=     4 RedAO= T EigKep=  2.34D-01  NBF=     2     0     0     0     0     2     0     0
 NBsUse=     4 1.00D-06 EigRej= -1.00D+00 NBFU=     2     0     0     0     0     2     0     0
 ExpMin= 1.78D-01 ExpMax= 1.92D+01 ExpMxC= 1.92D+01 IAcc=1 IRadAn=         1 AccDes= 0.00D+00
 Harris functional with IExCor= 1009 and IRadAn=       1 diagonalized for initial guess.
 HarFok:  IExCor= 1009 AccDes= 0.00D+00 IRadAn=         1 IDoV= 1 UseB2=F ITyADJ=14
 ICtDFT=  3500011 ScaDFX=  1.000000  1.000000  1.000000  1.000000
 FoFCou: FMM=F IPFlag=           0 FMFlag=      100000 FMFlg1=           0
         NFxFlg=           0 DoJE=T BraDBF=F KetDBF=T FulRan=T
         wScrn=  0.000000 ICntrl=     500 IOpCl=  0 I1Cent=   200000004 NGrid=           0
         NMat0=    1 NMatS0=      1 NMatT0=    0 NMatD0=    1 NMtDS0=    0 NMtDT0=    0
 Petite list used in FoFCou.
 Initial guess orbital symmetries:
       Occupied  (SGG)
       Virtual   (SGU) (SGG) (SGU)
 The electronic state of the initial guess is 1-SGG.
 Keep R1 ints in memory in symmetry-blocked form, NReq=856174.
 Requested convergence on RMS density matrix=1.00D-08 within 128 cycles.
 Requested convergence on MAX density matrix=1.00D-06.
 Requested convergence on             energy=1.00D-06.
 No special actions if energy rises.
 Integral accuracy reduced to 1.0D-05 until final iterations.
 Initial convergence to 1.0D-05 achieved.  Increase integral accuracy.
 SCF Done:  E(RM062X) =  -1.11578941640     A.U. after    6 cycles
            NFock=  6  Conv=0.87D-12     -V/T= 2.2167

 **********************************************************************

            Population analysis using the SCF density.

 **********************************************************************

 Orbital symmetries:
       Occupied  (SGG)
       Virtual   (SGU) (SGG) (SGU)
 The electronic state is 1-SGG.
 Alpha  occ. eigenvalues --   -0.42199
 Alpha virt. eigenvalues --    0.08521   0.85930   1.08943
          Condensed to atoms (all electrons):
               1          2
     1  H    0.660942   0.339058
     2  H    0.339058   0.660942
 Mulliken charges:
               1
     1  H    0.000000
     2  H    0.000000
 Sum of Mulliken charges =   0.00000
 Mulliken charges with hydrogens summed into heavy atoms:
               1
 Electronic spatial extent (au):  <R**2>=              6.7302
 Charge=              0.0000 electrons
 Dipole moment (field-independent basis, Debye):
    X=              0.0000    Y=              0.0000    Z=              0.0000  Tot=              0.0000
 Quadrupole moment (field-independent basis, Debye-Ang):
   XX=             -2.3241   YY=             -2.3241   ZZ=             -1.4982
   XY=              0.0000   XZ=              0.0000   YZ=              0.0000
 Traceless Quadrupole moment (field-independent basis, Debye-Ang):
   XX=             -0.2753   YY=             -0.2753   ZZ=              0.5506
   XY=              0.0000   XZ=              0.0000   YZ=              0.0000
 Octapole moment (field-independent basis, Debye-Ang**2):
  XXX=              0.0000  YYY=              0.0000  ZZZ=              0.0000  XYY=              0.0000
  XXY=              0.0000  XXZ=              0.0000  XZZ=              0.0000  YZZ=              0.0000
  YYZ=              0.0000  XYZ=              0.0000
 Hexadecapole moment (field-independent basis, Debye-Ang**3):
 XXXX=             -2.2021 YYYY=             -2.2021 ZZZZ=             -4.6835 XXXY=              0.0000
 XXXZ=              0.0000 YYYX=              0.0000 YYYZ=              0.0000 ZZZX=              0.0000
 ZZZY=              0.0000 XXYY=             -0.7340 XXZZ=             -1.1938 YYZZ=             -1.1938
 XXYZ=              0.0000 YYXZ=              0.0000 ZZXY=              0.0000
 N-N= 4.810735405348D-01 E-N=-3.032863688691D+00  KE= 9.170308803015D-01
 Symmetry AG   KE= 9.170308803015D-01
 Symmetry B1G  KE= 0.000000000000D+00
 Symmetry B2G  KE= 0.000000000000D+00
 Symmetry B3G  KE= 0.000000000000D+00
 Symmetry AU   KE= 0.000000000000D+00
 Symmetry B1U  KE= 2.573296751698D-32
 Symmetry B2U  KE= 0.000000000000D+00
 Symmetry B3U  KE= 0.000000000000D+00
   8 Symmetry operations used in ECPInt.
 ECPInt:  NShTT=      10 NPrTT=      42 LenC2=      11 LenP2D=      42.
 LDataN:  DoStor=T MaxTD1= 2 Len=   12
 Calling FoFJK, ICntrl=      2127 FMM=F ISym2X=1 I1Cent= 0 IOpClX= 0 NMat=1 NMatS=1 NMatT=0.
 ***** Axes restored to original set *****
 -------------------------------------------------------------------
 Center     Atomic                   Forces (Hartrees/Bohr)
 Number     Number              X              Y              Z
 -------------------------------------------------------------------
      1        1          -0.046115892   -0.065880102    0.057124306
      2        1           0.046115892    0.065880102   -0.057124306
 -------------------------------------------------------------------
 Cartesian Forces:  Max     0.065880102 RMS     0.056950416

 GradGradGradGradGradGradGradGradGradGradGradGradGradGradGradGradGradGrad
 Berny optimization.
 FormGI is forming the generalized inverse of G from B-inverse, IUseBI=4.
 Internal  Forces:  Max     0.098641014 RMS     0.098641014
 Search for a local minimum.
 Step number   1 out of a maximum of   20
 All quantities printed in internal units (Hartrees-Bohrs-Radians)
 Mixed Optimization -- RFO/linear search
 Second derivative matrix not updated -- first step.
 The second derivative matrix:
                          R1
           R1           0.13838
 ITU=  0
     Eigenvalues ---    0.13838
 RFO step:  Lambda=-5.12974277D-02 EMin= 1.38381667D-01
 Linear search not attempted -- first point.
 Maximum step size (   0.300) exceeded in Quadratic search.
    -- Step size scaled by   0.577
 Iteration  1 RMS(Cart)=  0.14142136 RMS(Int)=  0.10000000
 Iteration  2 RMS(Cart)=  0.07071068 RMS(Int)=  0.00000000
 Iteration  3 RMS(Cart)=  0.00000000 RMS(Int)=  0.00000000
 ClnCor:  largest displacement from symmetrization is 8.88D-16 for atom     2.
 Variable       Old X    -DE/DX   Delta X   Delta X   Delta X     New X
                                 (Linear)    (Quad)   (Total)
    R1        2.07868  -0.09864   0.00000  -0.30000  -0.30000   1.77868
         Item               Value     Threshold  Converged?
 Maximum Force            0.098641     0.000450     NO 
 RMS     Force            0.098641     0.000300     NO 
 Maximum Displacement     0.100182     0.001800     NO 
 RMS     Displacement     0.212132     0.001200     NO 
 Predicted change in Energy=-2.336513D-02
 GradGradGradGradGradGradGradGradGradGradGradGradGradGradGradGradGradGrad

                          Input orientation:                          
 ---------------------------------------------------------------------
 Center     Atomic      Atomic             Coordinates (Angstroms)
 Number     Number       Type             X           Y           Z
 ---------------------------------------------------------------------
      1          1           0       -0.144870   -2.006924    1.079988
      2          1           0       -0.584910   -2.635556    1.625072
 ---------------------------------------------------------------------
 Stoichiometry    H2
 Framework group  D*H[C*(H.H)]
 Deg. of freedom     1
 Full point group                 D*H     NOp   8
 Largest Abelian subgroup         D2H     NOp   8
 Largest concise Abelian subgroup C2      NOp   2
                         Standard orientation:                         
 ---------------------------------------------------------------------
 Center     Atomic      Atomic             Coordinates (Angstroms)
 Number     Number       Type             X           Y           Z
 ---------------------------------------------------------------------
      1          1           0        0.000000    0.000000    0.470620
      2          1           0        0.000000    0.000000   -0.470620
 ---------------------------------------------------------------------
 Rotational constants (GHZ):      0.0000000   1132.0407467   1132.0407467
 Standard basis: LANL2DZ (5D, 7F)
 There are     2 symmetry adapted cartesian basis functions of AG  symmetry.
 There are     0 symmetry adapted cartesian basis functions of B1G symmetry.
 There are     0 symmetry adapted cartesian basis functions of B2G symmetry.
 There are     0 symmetry adapted cartesian basis functions of B3G symmetry.
 There are     0 symmetry adapted cartesian basis functions of AU  symmetry.
 There are     2 symmetry adapted cartesian basis functions of B1U symmetry.
 There are     0 symmetry adapted cartesian basis functions of B2U symmetry.
 There are     0 symmetry adapted cartesian basis functions of B3U symmetry.
 There are     2 symmetry adapted basis functions of AG  symmetry.
 There are     0 symmetry adapted basis functions of B1G symmetry.
 There are     0 symmetry adapted basis functions of B2G symmetry.
 There are     0 symmetry adapted basis functions of B3G symmetry.
 There are     0 symmetry adapted basis functions of AU  symmetry.
 There are     2 symmetry adapted basis functions of B1U symmetry.
 There are     0 symmetry adapted basis functions of B2U symmetry.
 There are     0 symmetry adapted basis functions of B3U symmetry.
     4 basis functions,     8 primitive gaussians,     4 cartesian basis functions
     1 alpha electrons        1 beta electrons
       nuclear repulsion energy         0.5622133273 Hartrees.
 NAtoms=    2 NActive=    2 NUniq=    1 SFac= 4.00D+00 NAtFMM=   60 NAOKFM=F Big=F
 Integral buffers will be    131072 words long.
 Raffenetti 2 integral format.
 Two-electron integral symmetry is turned on.
 One-electron integrals computed using PRISM.
   8 Symmetry operations used in ECPInt.
 ECPInt:  NShTT=      10 NPrTT=      42 LenC2=      11 LenP2D=      42.
 LDataN:  DoStor=T MaxTD1= 1 Len=    4
 NBasis=     4 RedAO= T EigKep=  1.95D-01  NBF=     2     0     0     0     0     2     0     0
 NBsUse=     4 1.00D-06 EigRej= -1.00D+00 NBFU=     2     0     0     0     0     2     0     0
 Initial guess from the checkpoint file:  "/scr/Gau-22017.chk"
 B after Tr=     0.000000    0.000000    0.000000
         Rot=    1.000000    0.000000    0.000000    0.000000 Ang=   0.00 deg.
 Initial guess orbital symmetries:
       Occupied  (SGG)
       Virtual   (SGG) (SGU) (SGU)
 ExpMin= 1.78D-01 ExpMax= 1.92D+01 ExpMxC= 1.92D+01 IAcc=1 IRadAn=         1 AccDes= 0.00D+00
 Harris functional with IExCor= 1009 and IRadAn=       1 diagonalized for initial guess.
 HarFok:  IExCor= 1009 AccDes= 0.00D+00 IRadAn=         1 IDoV= 1 UseB2=F ITyADJ=14
 ICtDFT=  3500011 ScaDFX=  1.000000  1.000000  1.000000  1.000000
 FoFCou: FMM=F IPFlag=           0 FMFlag=      100000 FMFlg1=           0
         NFxFlg=           0 DoJE=T BraDBF=F KetDBF=T FulRan=T
         wScrn=  0.000000 ICntrl=     500 IOpCl=  0 I1Cent=   200000004 NGrid=           0
         NMat0=    1 NMatS0=      1 NMatT0=    0 NMatD0=    1 NMtDS0=    0 NMtDT0=    0
 Petite list used in FoFCou.
 Keep R1 ints in memory in symmetry-blocked form, NReq=856174.
 Requested convergence on RMS density matrix=1.00D-08 within 128 cycles.
 Requested convergence on MAX density matrix=1.00D-06.
 Requested convergence on             energy=1.00D-06.
 No special actions if energy rises.
 Integral accuracy reduced to 1.0D-05 until final iterations.
 Initial convergence to 1.0D-05 achieved.  Increase integral accuracy.
 SCF Done:  E(RM062X) =  -1.14347589216     A.U. after    7 cycles
            NFock=  7  Conv=0.20D-09     -V/T= 2.1483
   8 Symmetry operations used in ECPInt.
 ECPInt:  NShTT=      10 NPrTT=      42 LenC2=      11 LenP2D=      42.
 LDataN:  DoStor=T MaxTD1= 2 Len=   12
 Calling FoFJK, ICntrl=      2127 FMM=F ISym2X=1 I1Cent= 0 IOpClX= 0 NMat=1 NMatS=1 NMatT=0.
 ***** Axes restored to original set *****
 -------------------------------------------------------------------
 Center     Atomic                   Forces (Hartrees/Bohr)
 Number     Number              X              Y              Z
 -------------------------------------------------------------------
      1        1          -0.038447010   -0.054924513    0.047624770
      2        1           0.038447010    0.054924513   -0.047624770
 -------------------------------------------------------------------
 Cartesian Forces:  Max     0.054924513 RMS     0.047479797

 GradGradGradGradGradGradGradGradGradGradGradGradGradGradGradGradGradGrad
 Berny optimization.
 Using GEDIIS/GDIIS optimizer.
 Internal  Forces:  Max     0.082237421 RMS     0.082237421
 Search for a local minimum.
 Step number   2 out of a maximum of   20
 All quantities printed in internal units (Hartrees-Bohrs-Radians)
 Mixed Optimization -- RFO/linear search
 Update second derivatives using D2CorX and points    1    2
 DE= -2.77D-02 DEPred=-2.34D-02 R= 1.18D+00
 TightC=F SS=  1.41D+00  RLast= 3.00D-01 DXNew= 5.0454D-01 9.0000D-01
 Trust test= 1.18D+00 RLast= 3.00D-01 DXMaxT set to 5.05D-01
 The second derivative matrix:
                          R1
           R1           0.05468
 ITU=  1  0
 Use linear search instead of GDIIS.
     Eigenvalues ---    0.05468
 RFO step:  Lambda= 0.00000000D+00 EMin= 5.46786427D-02
 Quartic linear search produced a step of  1.46121.
 Iteration  1 RMS(Cart)=  0.14142136 RMS(Int)=  0.23836222
 Iteration  2 RMS(Cart)=  0.14142136 RMS(Int)=  0.03836222
 Iteration  3 RMS(Cart)=  0.02712619 RMS(Int)=  0.00000000
 Iteration  4 RMS(Cart)=  0.00000000 RMS(Int)=  0.00000000
 ClnCor:  largest displacement from symmetrization is 1.11D-16 for atom     1.
 Variable       Old X    -DE/DX   Delta X   Delta X   Delta X     New X
                                 (Linear)    (Quad)   (Total)
    R1        1.77868  -0.08224  -0.43836   0.00000  -0.43836   1.34032
         Item               Value     Threshold  Converged?
 Maximum Force            0.082237     0.000450     NO 
 RMS     Force            0.082237     0.000300     NO 
 Maximum Displacement     0.146386     0.001800     NO 
 RMS     Displacement     0.309969     0.001200     NO 
 Predicted change in Energy=-3.079622D-02
 GradGradGradGradGradGradGradGradGradGradGradGradGradGradGradGradGradGrad

                          Input orientation:                          
 ---------------------------------------------------------------------
 Center     Atomic      Atomic             Coordinates (Angstroms)
 Number     Number       Type             X           Y           Z
 ---------------------------------------------------------------------
      1          1           0       -0.199094   -2.084388    1.147157
      2          1           0       -0.530686   -2.558092    1.557903
 ---------------------------------------------------------------------
 Stoichiometry    H2
 Framework group  D*H[C*(H.H)]
 Deg. of freedom     1
 Full point group                 D*H     NOp   8
 Largest Abelian subgroup         D2H     NOp   8
 Largest concise Abelian subgroup C2      NOp   2
                         Standard orientation:                         
 ---------------------------------------------------------------------
 Center     Atomic      Atomic             Coordinates (Angstroms)
 Number     Number       Type             X           Y           Z
 ---------------------------------------------------------------------
      1          1           0        0.000000    0.000000    0.354634
      2          1           0        0.000000    0.000000   -0.354634
 ---------------------------------------------------------------------
 Rotational constants (GHZ):      0.0000000   1993.6157971   1993.6157971
 Standard basis: LANL2DZ (5D, 7F)
 There are     2 symmetry adapted cartesian basis functions of AG  symmetry.
 There are     0 symmetry adapted cartesian basis functions of B1G symmetry.
 There are     0 symmetry adapted cartesian basis functions of B2G symmetry.
 There are     0 symmetry adapted cartesian basis functions of B3G symmetry.
 There are     0 symmetry adapted cartesian basis functions of AU  symmetry.
 There are     2 symmetry adapted cartesian basis functions of B1U symmetry.
 There are     0 symmetry adapted cartesian basis functions of B2U symmetry.
 There are     0 symmetry adapted cartesian basis functions of B3U symmetry.
 There are     2 symmetry adapted basis functions of AG  symmetry.
 There are     0 symmetry adapted basis functions of B1G symmetry.
 There are     0 symmetry adapted basis functions of B2G symmetry.
 There are     0 symmetry adapted basis functions of B3G symmetry.
 There are     0 symmetry adapted basis functions of AU  symmetry.
 There are     2 symmetry adapted basis functions of B1U symmetry.
 There are     0 symmetry adapted basis functions of B2U symmetry.
 There are     0 symmetry adapted basis functions of B3U symmetry.
     4 basis functions,     8 primitive gaussians,     4 cartesian basis functions
     1 alpha electrons        1 beta electrons
       nuclear repulsion energy         0.7460893486 Hartrees.
 NAtoms=    2 NActive=    2 NUniq=    1 SFac= 4.00D+00 NAtFMM=   60 NAOKFM=F Big=F
 Integral buffers will be    131072 words long.
 Raffenetti 2 integral format.
 Two-electron integral symmetry is turned on.
 One-electron integrals computed using PRISM.
   8 Symmetry operations used in ECPInt.
 ECPInt:  NShTT=      10 NPrTT=      42 LenC2=      11 LenP2D=      42.
 LDataN:  DoStor=T MaxTD1= 1 Len=    4
 NBasis=     4 RedAO= T EigKep=  1.30D-01  NBF=     2     0     0     0     0     2     0     0
 NBsUse=     4 1.00D-06 EigRej= -1.00D+00 NBFU=     2     0     0     0     0     2     0     0
 Initial guess from the checkpoint file:  "/scr/Gau-22017.chk"
 B after Tr=     0.000000    0.000000    0.000000
         Rot=    1.000000    0.000000    0.000000    0.000000 Ang=   0.00 deg.
 Initial guess orbital symmetries:
       Occupied  (SGG)
       Virtual   (SGG) (SGU) (SGU)
 ExpMin= 1.78D-01 ExpMax= 1.92D+01 ExpMxC= 1.92D+01 IAcc=1 IRadAn=         1 AccDes= 0.00D+00
 Harris functional with IExCor= 1009 and IRadAn=       1 diagonalized for initial guess.
 HarFok:  IExCor= 1009 AccDes= 0.00D+00 IRadAn=         1 IDoV= 1 UseB2=F ITyADJ=14
 ICtDFT=  3500011 ScaDFX=  1.000000  1.000000  1.000000  1.000000
 FoFCou: FMM=F IPFlag=           0 FMFlag=      100000 FMFlg1=           0
         NFxFlg=           0 DoJE=T BraDBF=F KetDBF=T FulRan=T
         wScrn=  0.000000 ICntrl=     500 IOpCl=  0 I1Cent=   200000004 NGrid=           0
         NMat0=    1 NMatS0=      1 NMatT0=    0 NMatD0=    1 NMtDS0=    0 NMtDT0=    0
 Petite list used in FoFCou.
 Keep R1 ints in memory in symmetry-blocked form, NReq=856174.
 Requested convergence on RMS density matrix=1.00D-08 within 128 cycles.
 Requested convergence on MAX density matrix=1.00D-06.
 Requested convergence on             energy=1.00D-06.
 No special actions if energy rises.
 Integral accuracy reduced to 1.0D-05 until final iterations.
 Initial convergence to 1.0D-05 achieved.  Increase integral accuracy.
 SCF Done:  E(RM062X) =  -1.16222057083     A.U. after    6 cycles
            NFock=  6  Conv=0.82D-08     -V/T= 1.9880
   8 Symmetry operations used in ECPInt.
 ECPInt:  NShTT=      10 NPrTT=      42 LenC2=      11 LenP2D=      42.
 LDataN:  DoStor=T MaxTD1= 2 Len=   12
 Calling FoFJK, ICntrl=      2127 FMM=F ISym2X=1 I1Cent= 0 IOpClX= 0 NMat=1 NMatS=1 NMatT=0.
 ***** Axes restored to original set *****
 -------------------------------------------------------------------
 Center     Atomic                   Forces (Hartrees/Bohr)
 Number     Number              X              Y              Z
 -------------------------------------------------------------------
      1        1           0.010691319    0.015273372   -0.013243464
      2        1          -0.010691319   -0.015273372    0.013243464
 -------------------------------------------------------------------
 Cartesian Forces:  Max     0.015273372 RMS     0.013203151

 GradGradGradGradGradGradGradGradGradGradGradGradGradGradGradGradGradGrad
 Berny optimization.
 Using GEDIIS/GDIIS optimizer.
 Internal  Forces:  Max     0.022868528 RMS     0.022868528
 Search for a local minimum.
 Step number   3 out of a maximum of   20
 All quantities printed in internal units (Hartrees-Bohrs-Radians)
 Mixed Optimization -- RFO/linear search
 Update second derivatives using D2CorX and points    2    3
 DE= -1.87D-02 DEPred=-3.08D-02 R= 6.09D-01
 TightC=F SS=  1.41D+00  RLast= 4.38D-01 DXNew= 8.4853D-01 1.3151D+00
 Trust test= 6.09D-01 RLast= 4.38D-01 DXMaxT set to 8.49D-01
 The second derivative matrix:
                          R1
           R1           0.23977
 ITU=  1  1
 Use linear search instead of GDIIS.
     Eigenvalues ---    0.23977
 RFO step:  Lambda= 0.00000000D+00 EMin= 2.39769631D-01
 Quartic linear search produced a step of -0.12684.
 Iteration  1 RMS(Cart)=  0.03931531 RMS(Int)=  0.00000000
 Iteration  2 RMS(Cart)=  0.00000000 RMS(Int)=  0.00000000
 ClnCor:  largest displacement from symmetrization is 2.22D-16 for atom     2.
 Variable       Old X    -DE/DX   Delta X   Delta X   Delta X     New X
                                 (Linear)    (Quad)   (Total)
    R1        1.34032   0.02287   0.05560   0.00000   0.05560   1.39592
         Item               Value     Threshold  Converged?
 Maximum Force            0.022869     0.000450     NO 
 RMS     Force            0.022869     0.000300     NO 
 Maximum Displacement     0.018567     0.001800     NO 
 RMS     Displacement     0.039315     0.001200     NO 
 Predicted change in Energy=-9.008853D-04
 GradGradGradGradGradGradGradGradGradGradGradGradGradGradGradGradGradGrad

                          Input orientation:                          
 ---------------------------------------------------------------------
 Center     Atomic      Atomic             Coordinates (Angstroms)
 Number     Number       Type             X           Y           Z
 ---------------------------------------------------------------------
      1          1           0       -0.192217   -2.074563    1.138637
      2          1           0       -0.537563   -2.567917    1.566423
 ---------------------------------------------------------------------
 Stoichiometry    H2
 Framework group  D*H[C*(H.H)]
 Deg. of freedom     1
 Full point group                 D*H     NOp   8
 Largest Abelian subgroup         D2H     NOp   8
 Largest concise Abelian subgroup C2      NOp   2
                         Standard orientation:                         
 ---------------------------------------------------------------------
 Center     Atomic      Atomic             Coordinates (Angstroms)
 Number     Number       Type             X           Y           Z
 ---------------------------------------------------------------------
      1          1           0        0.000000    0.000000    0.369345
      2          1           0        0.000000    0.000000   -0.369345
 ---------------------------------------------------------------------
 Rotational constants (GHZ):      0.0000000   1837.9652996   1837.9652996
 Standard basis: LANL2DZ (5D, 7F)
 There are     2 symmetry adapted cartesian basis functions of AG  symmetry.
 There are     0 symmetry adapted cartesian basis functions of B1G symmetry.
 There are     0 symmetry adapted cartesian basis functions of B2G symmetry.
 There are     0 symmetry adapted cartesian basis functions of B3G symmetry.
 There are     0 symmetry adapted cartesian basis functions of AU  symmetry.
 There are     2 symmetry adapted cartesian basis functions of B1U symmetry.
 There are     0 symmetry adapted cartesian basis functions of B2U symmetry.
 There are     0 symmetry adapted cartesian basis functions of B3U symmetry.
 There are     2 symmetry adapted basis functions of AG  symmetry.
 There are     0 symmetry adapted basis functions of B1G symmetry.
 There are     0 symmetry adapted basis functions of B2G symmetry.
 There are     0 symmetry adapted basis functions of B3G symmetry.
 There are     0 symmetry adapted basis functions of AU  symmetry.
 There are     2 symmetry adapted basis functions of B1U symmetry.
 There are     0 symmetry adapted basis functions of B2U symmetry.
 There are     0 symmetry adapted basis functions of B3U symmetry.
     4 basis functions,     8 primitive gaussians,     4 cartesian basis functions
     1 alpha electrons        1 beta electrons
       nuclear repulsion energy         0.7163722605 Hartrees.
 NAtoms=    2 NActive=    2 NUniq=    1 SFac= 4.00D+00 NAtFMM=   60 NAOKFM=F Big=F
 Integral buffers will be    131072 words long.
 Raffenetti 2 integral format.
 Two-electron integral symmetry is turned on.
 One-electron integrals computed using PRISM.
   8 Symmetry operations used in ECPInt.
 ECPInt:  NShTT=      10 NPrTT=      42 LenC2=      11 LenP2D=      42.
 LDataN:  DoStor=T MaxTD1= 1 Len=    4
 NBasis=     4 RedAO= T EigKep=  1.38D-01  NBF=     2     0     0     0     0     2     0     0
 NBsUse=     4 1.00D-06 EigRej= -1.00D+00 NBFU=     2     0     0     0     0     2     0     0
 Initial guess from the checkpoint file:  "/scr/Gau-22017.chk"
 B after Tr=     0.000000    0.000000    0.000000
         Rot=    1.000000    0.000000    0.000000    0.000000 Ang=   0.00 deg.
 Initial guess orbital symmetries:
       Occupied  (SGG)
       Virtual   (SGG) (SGU) (SGU)
 Keep R1 ints in memory in symmetry-blocked form, NReq=856174.
 Requested convergence on RMS density matrix=1.00D-08 within 128 cycles.
 Requested convergence on MAX density matrix=1.00D-06.
 Requested convergence on             energy=1.00D-06.
 No special actions if energy rises.
 SCF Done:  E(RM062X) =  -1.16280988344     A.U. after    4 cycles
            NFock=  4  Conv=0.46D-11     -V/T= 2.0129
   8 Symmetry operations used in ECPInt.
 ECPInt:  NShTT=      10 NPrTT=      42 LenC2=      11 LenP2D=      42.
 LDataN:  DoStor=T MaxTD1= 2 Len=   12
 Calling FoFJK, ICntrl=      2127 FMM=F ISym2X=1 I1Cent= 0 IOpClX= 0 NMat=1 NMatS=1 NMatT=0.
 ***** Axes restored to original set *****
 -------------------------------------------------------------------
 Center     Atomic                   Forces (Hartrees/Bohr)
 Number     Number              X              Y              Z
 -------------------------------------------------------------------
      1        1          -0.000417947   -0.000597069    0.000517716
      2        1           0.000417947    0.000597069   -0.000517716
 -------------------------------------------------------------------
 Cartesian Forces:  Max     0.000597069 RMS     0.000516140

 GradGradGradGradGradGradGradGradGradGradGradGradGradGradGradGradGradGrad
 Berny optimization.
 Using GEDIIS/GDIIS optimizer.
 Internal  Forces:  Max     0.000893980 RMS     0.000893980
 Search for a local minimum.
 Step number   4 out of a maximum of   20
 All quantities printed in internal units (Hartrees-Bohrs-Radians)
 Mixed Optimization -- En-DIIS/RFO-DIIS
 Update second derivatives using D2CorX and points    3    4
 DE= -5.89D-04 DEPred=-9.01D-04 R= 6.54D-01
 TightC=F SS=  1.41D+00  RLast= 5.56D-02 DXNew= 1.4270D+00 1.6680D-01
 Trust test= 6.54D-01 RLast= 5.56D-02 DXMaxT set to 8.49D-01
 The second derivative matrix:
                          R1
           R1           0.42738
 ITU=  1  1
 Use linear search instead of GDIIS.
     Eigenvalues ---    0.42738
 RFO step:  Lambda= 0.00000000D+00 EMin= 4.27381408D-01
 Quartic linear search produced a step of -0.04146.
 Iteration  1 RMS(Cart)=  0.00162993 RMS(Int)=  0.00000000
 Iteration  2 RMS(Cart)=  0.00000000 RMS(Int)=  0.00000000
 ClnCor:  largest displacement from symmetrization is 9.93D-16 for atom     2.
 Variable       Old X    -DE/DX   Delta X   Delta X   Delta X     New X
                                 (Linear)    (Quad)   (Total)
    R1        1.39592  -0.00089  -0.00231   0.00000  -0.00231   1.39362
         Item               Value     Threshold  Converged?
 Maximum Force            0.000894     0.000450     NO 
 RMS     Force            0.000894     0.000300     NO 
 Maximum Displacement     0.000770     0.001800     YES
 RMS     Displacement     0.001630     0.001200     NO 
 Predicted change in Energy=-9.252740D-07
 GradGradGradGradGradGradGradGradGradGradGradGradGradGradGradGradGradGrad

                          Input orientation:                          
 ---------------------------------------------------------------------
 Center     Atomic      Atomic             Coordinates (Angstroms)
 Number     Number       Type             X           Y           Z
 ---------------------------------------------------------------------
      1          1           0       -0.192502   -2.074970    1.138991
      2          1           0       -0.537278   -2.567510    1.566069
 ---------------------------------------------------------------------
 Stoichiometry    H2
 Framework group  D*H[C*(H.H)]
 Deg. of freedom     1
 Full point group                 D*H     NOp   8
 Largest Abelian subgroup         D2H     NOp   8
 Largest concise Abelian subgroup C2      NOp   2
                         Standard orientation:                         
 ---------------------------------------------------------------------
 Center     Atomic      Atomic             Coordinates (Angstroms)
 Number     Number       Type             X           Y           Z
 ---------------------------------------------------------------------
      1          1           0        0.000000    0.000000    0.368735
      2          1           0        0.000000    0.000000   -0.368735
 ---------------------------------------------------------------------
 Rotational constants (GHZ):      0.0000000   1844.0504048   1844.0504048
 Standard basis: LANL2DZ (5D, 7F)
 There are     2 symmetry adapted cartesian basis functions of AG  symmetry.
 There are     0 symmetry adapted cartesian basis functions of B1G symmetry.
 There are     0 symmetry adapted cartesian basis functions of B2G symmetry.
 There are     0 symmetry adapted cartesian basis functions of B3G symmetry.
 There are     0 symmetry adapted cartesian basis functions of AU  symmetry.
 There are     2 symmetry adapted cartesian basis functions of B1U symmetry.
 There are     0 symmetry adapted cartesian basis functions of B2U symmetry.
 There are     0 symmetry adapted cartesian basis functions of B3U symmetry.
 There are     2 symmetry adapted basis functions of AG  symmetry.
 There are     0 symmetry adapted basis functions of B1G symmetry.
 There are     0 symmetry adapted basis functions of B2G symmetry.
 There are     0 symmetry adapted basis functions of B3G symmetry.
 There are     0 symmetry adapted basis functions of AU  symmetry.
 There are     2 symmetry adapted basis functions of B1U symmetry.
 There are     0 symmetry adapted basis functions of B2U symmetry.
 There are     0 symmetry adapted basis functions of B3U symmetry.
     4 basis functions,     8 primitive gaussians,     4 cartesian basis functions
     1 alpha electrons        1 beta electrons
       nuclear repulsion energy         0.7175571573 Hartrees.
 NAtoms=    2 NActive=    2 NUniq=    1 SFac= 4.00D+00 NAtFMM=   60 NAOKFM=F Big=F
 Integral buffers will be    131072 words long.
 Raffenetti 2 integral format.
 Two-electron integral symmetry is turned on.
 One-electron integrals computed using PRISM.
   8 Symmetry operations used in ECPInt.
 ECPInt:  NShTT=      10 NPrTT=      42 LenC2=      11 LenP2D=      42.
 LDataN:  DoStor=T MaxTD1= 1 Len=    4
 NBasis=     4 RedAO= T EigKep=  1.38D-01  NBF=     2     0     0     0     0     2     0     0
 NBsUse=     4 1.00D-06 EigRej= -1.00D+00 NBFU=     2     0     0     0     0     2     0     0
 Initial guess from the checkpoint file:  "/scr/Gau-22017.chk"
 B after Tr=     0.000000    0.000000    0.000000
         Rot=    1.000000    0.000000    0.000000    0.000000 Ang=   0.00 deg.
 Initial guess orbital symmetries:
       Occupied  (SGG)
       Virtual   (SGG) (SGU) (SGU)
 Keep R1 ints in memory in symmetry-blocked form, NReq=856174.
 Requested convergence on RMS density matrix=1.00D-08 within 128 cycles.
 Requested convergence on MAX density matrix=1.00D-06.
 Requested convergence on             energy=1.00D-06.
 No special actions if energy rises.
 SCF Done:  E(RM062X) =  -1.16281091353     A.U. after    3 cycles
            NFock=  3  Conv=0.18D-09     -V/T= 2.0119
   8 Symmetry operations used in ECPInt.
 ECPInt:  NShTT=      10 NPrTT=      42 LenC2=      11 LenP2D=      42.
 LDataN:  DoStor=T MaxTD1= 2 Len=   12
 Calling FoFJK, ICntrl=      2127 FMM=F ISym2X=1 I1Cent= 0 IOpClX= 0 NMat=1 NMatS=1 NMatT=0.
 ***** Axes restored to original set *****
 -------------------------------------------------------------------
 Center     Atomic                   Forces (Hartrees/Bohr)
 Number     Number              X              Y              Z
 -------------------------------------------------------------------
      1        1           0.000000669    0.000000956   -0.000000829
      2        1          -0.000000669   -0.000000956    0.000000829
 -------------------------------------------------------------------
 Cartesian Forces:  Max     0.000000956 RMS     0.000000826

 GradGradGradGradGradGradGradGradGradGradGradGradGradGradGradGradGradGrad
 Berny optimization.
 Using GEDIIS/GDIIS optimizer.
 Internal  Forces:  Max     0.000001431 RMS     0.000001431
 Search for a local minimum.
 Step number   5 out of a maximum of   20
 All quantities printed in internal units (Hartrees-Bohrs-Radians)
 Mixed Optimization -- En-DIIS/RFO-DIIS
 Swapping is turned off.
 Update second derivatives using D2CorX and points    4    5
 DE= -1.03D-06 DEPred=-9.25D-07 R= 1.11D+00
 TightC=F SS=  1.41D+00  RLast= 2.31D-03 DXNew= 1.4270D+00 6.9152D-03
 Trust test= 1.11D+00 RLast= 2.31D-03 DXMaxT set to 8.49D-01
 The second derivative matrix:
                          R1
           R1           0.38845
 ITU=  1  1
     Eigenvalues ---    0.38845
 En-DIIS/RFO-DIIS IScMMF=        0 using points:     5    4
 RFO step:  Lambda=-3.28553851D-12.
 DidBck=F Rises=F RFO-DIIS coefs:    0.99840    0.00160
 Iteration  1 RMS(Cart)=  0.00000260 RMS(Int)=  0.00000000
 Iteration  2 RMS(Cart)=  0.00000000 RMS(Int)=  0.00000000
 ClnCor:  largest displacement from symmetrization is 6.28D-16 for atom     1.
 Variable       Old X    -DE/DX   Delta X   Delta X   Delta X     New X
                                 (Linear)    (Quad)   (Total)
    R1        1.39362   0.00000   0.00000   0.00000   0.00000   1.39362
         Item               Value     Threshold  Converged?
 Maximum Force            0.000001     0.000450     YES
 RMS     Force            0.000001     0.000300     YES
 Maximum Displacement     0.000001     0.001800     YES
 RMS     Displacement     0.000003     0.001200     YES
 Predicted change in Energy=-2.635751D-12
 Optimization completed.
    -- Stationary point found.
                           ----------------------------
                           !   Optimized Parameters   !
                           ! (Angstroms and Degrees)  !
 --------------------------                            --------------------------
 ! Name  Definition              Value          Derivative Info.                !
 --------------------------------------------------------------------------------
 ! R1    R(1,2)                  0.7375         -DE/DX =    0.0                 !
 --------------------------------------------------------------------------------
 GradGradGradGradGradGradGradGradGradGradGradGradGradGradGradGradGradGrad

                          Input orientation:                          
 ---------------------------------------------------------------------
 Center     Atomic      Atomic             Coordinates (Angstroms)
 Number     Number       Type             X           Y           Z
 ---------------------------------------------------------------------
      1          1           0       -0.192502   -2.074970    1.138991
      2          1           0       -0.537278   -2.567510    1.566069
 ---------------------------------------------------------------------
 Stoichiometry    H2
 Framework group  D*H[C*(H.H)]
 Deg. of freedom     1
 Full point group                 D*H     NOp   8
 Largest Abelian subgroup         D2H     NOp   8
 Largest concise Abelian subgroup C2      NOp   2
                         Standard orientation:                         
 ---------------------------------------------------------------------
 Center     Atomic      Atomic             Coordinates (Angstroms)
 Number     Number       Type             X           Y           Z
 ---------------------------------------------------------------------
      1          1           0        0.000000    0.000000    0.368735
      2          1           0        0.000000    0.000000   -0.368735
 ---------------------------------------------------------------------
 Rotational constants (GHZ):      0.0000000   1844.0504048   1844.0504048

 **********************************************************************

            Population analysis using the SCF density.

 **********************************************************************

 Orbital symmetries:
       Occupied  (SGG)
       Virtual   (SGU) (SGG) (SGU)
 The electronic state is 1-SGG.
 Alpha  occ. eigenvalues --   -0.49489
 Alpha virt. eigenvalues --    0.18355   0.70409   1.50590
          Condensed to atoms (all electrons):
               1          2
     1  H    0.597181   0.402819
     2  H    0.402819   0.597181
 Mulliken charges:
               1
     1  H    0.000000
     2  H    0.000000
 Sum of Mulliken charges =   0.00000
 Mulliken charges with hydrogens summed into heavy atoms:
               1
 Electronic spatial extent (au):  <R**2>=              4.9687
 Charge=              0.0000 electrons
 Dipole moment (field-independent basis, Debye):
    X=              0.0000    Y=              0.0000    Z=              0.0000  Tot=              0.0000
 Quadrupole moment (field-independent basis, Debye-Ang):
   XX=             -1.9342   YY=             -1.9342   ZZ=             -1.5085
   XY=              0.0000   XZ=              0.0000   YZ=              0.0000
 Traceless Quadrupole moment (field-independent basis, Debye-Ang):
   XX=             -0.1419   YY=             -0.1419   ZZ=              0.2838
   XY=              0.0000   XZ=              0.0000   YZ=              0.0000
 Octapole moment (field-independent basis, Debye-Ang**2):
  XXX=              0.0000  YYY=              0.0000  ZZZ=              0.0000  XYY=              0.0000
  XXY=              0.0000  XXZ=              0.0000  XZZ=              0.0000  YZZ=              0.0000
  YYZ=              0.0000  XYZ=              0.0000
 Hexadecapole moment (field-independent basis, Debye-Ang**3):
 XXXX=             -1.6363 YYYY=             -1.6363 ZZZZ=             -2.5431 XXXY=              0.0000
 XXXZ=              0.0000 YYYX=              0.0000 YYYZ=              0.0000 ZZZX=              0.0000
 ZZZY=              0.0000 XXYY=             -0.5454 XXZZ=             -0.7075 YYZZ=             -0.7075
 XXYZ=              0.0000 YYXZ=              0.0000 ZZXY=              0.0000
 N-N= 7.175571572993D-01 E-N=-3.654185607785D+00  KE= 1.149186157581D+00
 Symmetry AG   KE= 1.149186157581D+00
 Symmetry B1G  KE= 0.000000000000D+00
 Symmetry B2G  KE= 0.000000000000D+00
 Symmetry B3G  KE= 0.000000000000D+00
 Symmetry AU   KE= 0.000000000000D+00
 Symmetry B1U  KE= 3.832446109178D-32
 Symmetry B2U  KE= 0.000000000000D+00
 Symmetry B3U  KE= 0.000000000000D+00
 1\1\GINC-N0292\FOpt\RM062X\LANL2DZ\H2\TAIYUPAN\24-Feb-2017\0\\#n M062X
 /LANL2DZ Opt\\Title\\0,1\H,-0.1925017265,-2.0749700801,1.1389905881\H,
 -0.5372782735,-2.5675099199,1.5660694119\\Version=ES64L-G09RevE.01\Sta
 te=1-SGG\HF=-1.1628109\RMSD=1.832e-10\RMSF=8.262e-07\Dipole=0.,0.,0.\Q
 uadrupole=-0.0363259,0.0356806,0.0006453,0.0988313,-0.0856961,-0.12242
 35\PG=D*H [C*(H1.H1)]\\@


 EXPERIENCE IS THE FRUIT OF THE TREE OF ERRORS.
 Job cpu time:       0 days  0 hours  0 minutes 25.3 seconds.
 File lengths (MBytes):  RWF=      5 Int=      0 D2E=      0 Chk=      1 Scr=      1
 Normal termination of Gaussian 09 at Fri Feb 24 00:07:00 2017.
