 Entering Gaussian System, Link 0=g09
 Input=bmim-cl-2.com
 Output=bmim-cl-2.log
 Initial command:
 /gscratch/pfaendtner/codes/G09/g09/l1.exe /gscratch/pfaendtner/wesley/gaussian/Gau-10169.inp -scrdir=/gscratch/pfaendtner/wesley/gaussian/
 Entering Link 1 = /gscratch/pfaendtner/codes/G09/g09/l1.exe PID=     10170.
  
 Copyright (c) 1988,1990,1992,1993,1995,1998,2003,2009, Gaussian, Inc.
                  All Rights Reserved.
  
 This is part of the Gaussian(R) 09 program.  It is based on
 the Gaussian(R) 03 system (copyright 2003, Gaussian, Inc.),
 the Gaussian(R) 98 system (copyright 1998, Gaussian, Inc.),
 the Gaussian(R) 94 system (copyright 1995, Gaussian, Inc.),
 the Gaussian 92(TM) system (copyright 1992, Gaussian, Inc.),
 the Gaussian 90(TM) system (copyright 1990, Gaussian, Inc.),
 the Gaussian 88(TM) system (copyright 1988, Gaussian, Inc.),
 the Gaussian 86(TM) system (copyright 1986, Carnegie Mellon
 University), and the Gaussian 82(TM) system (copyright 1983,
 Carnegie Mellon University). Gaussian is a federally registered
 trademark of Gaussian, Inc.
  
 This software contains proprietary and confidential information,
 including trade secrets, belonging to Gaussian, Inc.
  
 This software is provided under written license and may be
 used, copied, transmitted, or stored only in accord with that
 written license.
  
 The following legend is applicable only to US Government
 contracts under FAR:
  
                    RESTRICTED RIGHTS LEGEND
  
 Use, reproduction and disclosure by the US Government is
 subject to restrictions as set forth in subparagraphs (a)
 and (c) of the Commercial Computer Software - Restricted
 Rights clause in FAR 52.227-19.
  
 Gaussian, Inc.
 340 Quinnipiac St., Bldg. 40, Wallingford CT 06492
  
  
 ---------------------------------------------------------------
 Warning -- This program may not be used in any manner that
 competes with the business of Gaussian, Inc. or will provide
 assistance to any competitor of Gaussian, Inc.  The licensee
 of this program is prohibited from giving any competitor of
 Gaussian, Inc. access to this program.  By using this program,
 the user acknowledges that Gaussian, Inc. is engaged in the
 business of creating and licensing software in the field of
 computational chemistry and represents and warrants to the
 licensee that it is not a competitor of Gaussian, Inc. and that
 it will not use this program in any manner prohibited above.
 ---------------------------------------------------------------
  

 Cite this work as:
 Gaussian 09, Revision A.02,
 M. J. Frisch, G. W. Trucks, H. B. Schlegel, G. E. Scuseria, 
 M. A. Robb, J. R. Cheeseman, G. Scalmani, V. Barone, B. Mennucci, 
 G. A. Petersson, H. Nakatsuji, M. Caricato, X. Li, H. P. Hratchian, 
 A. F. Izmaylov, J. Bloino, G. Zheng, J. L. Sonnenberg, M. Hada, 
 M. Ehara, K. Toyota, R. Fukuda, J. Hasegawa, M. Ishida, T. Nakajima, 
 Y. Honda, O. Kitao, H. Nakai, T. Vreven, J. A. Montgomery, Jr., 
 J. E. Peralta, F. Ogliaro, M. Bearpark, J. J. Heyd, E. Brothers, 
 K. N. Kudin, V. N. Staroverov, R. Kobayashi, J. Normand, 
 K. Raghavachari, A. Rendell, J. C. Burant, S. S. Iyengar, J. Tomasi, 
 M. Cossi, N. Rega, J. M. Millam, M. Klene, J. E. Knox, J. B. Cross, 
 V. Bakken, C. Adamo, J. Jaramillo, R. Gomperts, R. E. Stratmann, 
 O. Yazyev, A. J. Austin, R. Cammi, C. Pomelli, J. W. Ochterski, 
 R. L. Martin, K. Morokuma, V. G. Zakrzewski, G. A. Voth, 
 P. Salvador, J. J. Dannenberg, S. Dapprich, A. D. Daniels, 
 O. Farkas, J. B. Foresman, J. V. Ortiz, J. Cioslowski, 
 and D. J. Fox, Gaussian, Inc., Wallingford CT, 2009.
 
 ******************************************
 Gaussian 09:  EM64L-G09RevA.02 11-Jun-2009
                 8-Mar-2017 
 ******************************************
 %chk=bmim-cl-2.chk
 %nprocshared=2
 Will use up to    2 processors via shared memory.
 --------------------------------------
 # opt M062X/6-311+G* geom=connectivity
 --------------------------------------
 1/14=-1,18=20,19=15,26=3,38=1,57=2/1,3;
 2/9=110,12=2,17=6,18=5,40=1/2;
 3/5=4,6=6,7=11,11=2,16=1,25=1,30=1,71=1,74=-55/1,2,3;
 4//1;
 5/5=2,38=5/2;
 6/7=2,8=2,9=2,10=2,28=1/1;
 7//1,2,3,16;
 1/14=-1,18=20,19=15/3(2);
 2/9=110/2;
 99//99;
 2/9=110/2;
 3/5=4,6=6,7=11,11=2,16=1,25=1,30=1,71=1,74=-55/1,2,3;
 4/5=5,16=3/1;
 5/5=2,38=5/2;
 7//1,2,3,16;
 1/14=-1,18=20,19=15/3(-5);
 2/9=110/2;
 6/7=2,8=2,9=2,10=2,19=2,28=1/1;
 99/9=1/99;
 -------------------
 Title Card Required
 -------------------
 Symbolic Z-matrix:
 Charge =  0 Multiplicity = 1
 C                    -1.14717   0.852     0.00436 
 C                     0.50471   2.42076   0.23179 
 C                    -1.42155   2.10739  -0.74419 
 H                     1.40344   2.89005   0.57379 
 H                    -1.96807   2.23691  -1.65493 
 H                    -1.82031   0.13626   0.42802 
 C                     0.93263   0.14073   1.14279 
 H                     1.99162   0.29382   1.14139 
 H                     0.5264    0.46653   2.07753 
 C                     0.63011  -1.35632   0.94549 
 H                    -0.42888  -1.5094    0.9469 
 H                     1.03634  -1.68211   0.01076 
 C                     1.26708  -2.16413   2.09149 
 H                     2.32607  -2.01104   2.09008 
 H                     0.86085  -1.83833   3.02623 
 C                     0.96456  -3.66118   1.89419 
 H                     1.37079  -3.98698   0.95945 
 H                     1.40713  -4.22245   2.69043 
 H                    -0.09443  -3.81426   1.89559 
 C                    -0.99284   4.4231    0.36521 
 H                    -1.67075   4.83413  -0.35339 
 H                    -1.46324   4.39844   1.32595 
 H                    -0.11341   5.03063   0.41416 
 N                     0.32461   0.91183   0.04889 
 N                    -0.62345   3.05762  -0.03469 
 Cl                   -1.00516   2.09334   1.87441 
 

 GradGradGradGradGradGradGradGradGradGradGradGradGradGradGradGradGradGrad
 Berny optimization.
 Initialization pass.
                           ----------------------------
                           !    Initial Parameters    !
                           ! (Angstroms and Degrees)  !
 --------------------------                            --------------------------
 ! Name  Definition              Value          Derivative Info.                !
 --------------------------------------------------------------------------------
 ! R1    R(1,3)                  1.4872         estimate D2E/DX2                !
 ! R2    R(1,6)                  1.07           estimate D2E/DX2                !
 ! R3    R(1,24)                 1.4737         estimate D2E/DX2                !
 ! R4    R(1,26)                 2.249          estimate D2E/DX2                !
 ! R5    R(2,4)                  1.07           estimate D2E/DX2                !
 ! R6    R(2,24)                 1.5306         estimate D2E/DX2                !
 ! R7    R(2,25)                 1.3226         estimate D2E/DX2                !
 ! R8    R(2,26)                 2.255          estimate D2E/DX2                !
 ! R9    R(3,5)                  1.07           estimate D2E/DX2                !
 ! R10   R(3,25)                 1.4294         estimate D2E/DX2                !
 ! R11   R(7,8)                  1.07           estimate D2E/DX2                !
 ! R12   R(7,9)                  1.07           estimate D2E/DX2                !
 ! R13   R(7,10)                 1.54           estimate D2E/DX2                !
 ! R14   R(7,24)                 1.47           estimate D2E/DX2                !
 ! R15   R(10,11)                1.07           estimate D2E/DX2                !
 ! R16   R(10,12)                1.07           estimate D2E/DX2                !
 ! R17   R(10,13)                1.54           estimate D2E/DX2                !
 ! R18   R(13,14)                1.07           estimate D2E/DX2                !
 ! R19   R(13,15)                1.07           estimate D2E/DX2                !
 ! R20   R(13,16)                1.54           estimate D2E/DX2                !
 ! R21   R(16,17)                1.07           estimate D2E/DX2                !
 ! R22   R(16,18)                1.07           estimate D2E/DX2                !
 ! R23   R(16,19)                1.07           estimate D2E/DX2                !
 ! R24   R(20,21)                1.07           estimate D2E/DX2                !
 ! R25   R(20,22)                1.07           estimate D2E/DX2                !
 ! R26   R(20,23)                1.07           estimate D2E/DX2                !
 ! R27   R(20,25)                1.47           estimate D2E/DX2                !
 ! R28   R(25,26)                2.1726         estimate D2E/DX2                !
 ! A1    A(3,1,6)              130.3829         estimate D2E/DX2                !
 ! A2    A(3,1,24)              99.5093         estimate D2E/DX2                !
 ! A3    A(3,1,26)              87.951          estimate D2E/DX2                !
 ! A4    A(6,1,24)             130.0531         estimate D2E/DX2                !
 ! A5    A(6,1,26)              94.5714         estimate D2E/DX2                !
 ! A6    A(24,1,26)             83.6506         estimate D2E/DX2                !
 ! A7    A(4,2,24)             124.7087         estimate D2E/DX2                !
 ! A8    A(4,2,25)             124.7254         estimate D2E/DX2                !
 ! A9    A(4,2,26)             113.1566         estimate D2E/DX2                !
 ! A10   A(24,2,25)            110.5025         estimate D2E/DX2                !
 ! A11   A(24,2,26)             82.2486         estimate D2E/DX2                !
 ! A12   A(1,3,5)              128.6707         estimate D2E/DX2                !
 ! A13   A(1,3,25)             102.0233         estimate D2E/DX2                !
 ! A14   A(5,3,25)             128.8426         estimate D2E/DX2                !
 ! A15   A(8,7,9)              109.4712         estimate D2E/DX2                !
 ! A16   A(8,7,10)             109.4712         estimate D2E/DX2                !
 ! A17   A(8,7,24)             109.4712         estimate D2E/DX2                !
 ! A18   A(9,7,10)             109.4712         estimate D2E/DX2                !
 ! A19   A(9,7,24)             109.4712         estimate D2E/DX2                !
 ! A20   A(10,7,24)            109.4712         estimate D2E/DX2                !
 ! A21   A(7,10,11)            109.4712         estimate D2E/DX2                !
 ! A22   A(7,10,12)            109.4712         estimate D2E/DX2                !
 ! A23   A(7,10,13)            109.4712         estimate D2E/DX2                !
 ! A24   A(11,10,12)           109.4712         estimate D2E/DX2                !
 ! A25   A(11,10,13)           109.4712         estimate D2E/DX2                !
 ! A26   A(12,10,13)           109.4712         estimate D2E/DX2                !
 ! A27   A(10,13,14)           109.4712         estimate D2E/DX2                !
 ! A28   A(10,13,15)           109.4712         estimate D2E/DX2                !
 ! A29   A(10,13,16)           109.4712         estimate D2E/DX2                !
 ! A30   A(14,13,15)           109.4712         estimate D2E/DX2                !
 ! A31   A(14,13,16)           109.4712         estimate D2E/DX2                !
 ! A32   A(15,13,16)           109.4712         estimate D2E/DX2                !
 ! A33   A(13,16,17)           109.4712         estimate D2E/DX2                !
 ! A34   A(13,16,18)           109.4712         estimate D2E/DX2                !
 ! A35   A(13,16,19)           109.4712         estimate D2E/DX2                !
 ! A36   A(17,16,18)           109.4712         estimate D2E/DX2                !
 ! A37   A(17,16,19)           109.4712         estimate D2E/DX2                !
 ! A38   A(18,16,19)           109.4712         estimate D2E/DX2                !
 ! A39   A(21,20,22)           109.4712         estimate D2E/DX2                !
 ! A40   A(21,20,23)           109.4712         estimate D2E/DX2                !
 ! A41   A(21,20,25)           109.4712         estimate D2E/DX2                !
 ! A42   A(22,20,23)           109.4712         estimate D2E/DX2                !
 ! A43   A(22,20,25)           109.4712         estimate D2E/DX2                !
 ! A44   A(23,20,25)           109.4712         estimate D2E/DX2                !
 ! A45   A(1,24,2)              99.2736         estimate D2E/DX2                !
 ! A46   A(1,24,7)             114.4737         estimate D2E/DX2                !
 ! A47   A(2,24,7)             112.3046         estimate D2E/DX2                !
 ! A48   A(2,25,3)             104.8423         estimate D2E/DX2                !
 ! A49   A(2,25,20)            127.3583         estimate D2E/DX2                !
 ! A50   A(3,25,20)            127.7501         estimate D2E/DX2                !
 ! A51   A(3,25,26)             92.4653         estimate D2E/DX2                !
 ! A52   A(20,25,26)            97.4165         estimate D2E/DX2                !
 ! A53   A(1,26,2)              61.1013         estimate D2E/DX2                !
 ! A54   A(1,26,25)             61.6682         estimate D2E/DX2                !
 ! D1    D(6,1,3,5)            -58.789          estimate D2E/DX2                !
 ! D2    D(6,1,3,25)           128.5631         estimate D2E/DX2                !
 ! D3    D(24,1,3,5)           123.7399         estimate D2E/DX2                !
 ! D4    D(24,1,3,25)          -48.908          estimate D2E/DX2                !
 ! D5    D(26,1,3,5)          -153.0482         estimate D2E/DX2                !
 ! D6    D(26,1,3,25)           34.3039         estimate D2E/DX2                !
 ! D7    D(3,1,24,2)            37.0391         estimate D2E/DX2                !
 ! D8    D(3,1,24,7)           156.8304         estimate D2E/DX2                !
 ! D9    D(6,1,24,2)          -140.4443         estimate D2E/DX2                !
 ! D10   D(6,1,24,7)           -20.653          estimate D2E/DX2                !
 ! D11   D(26,1,24,2)          -49.8014         estimate D2E/DX2                !
 ! D12   D(26,1,24,7)           69.9899         estimate D2E/DX2                !
 ! D13   D(3,1,26,2)           -64.0424         estimate D2E/DX2                !
 ! D14   D(3,1,26,25)          -24.3319         estimate D2E/DX2                !
 ! D15   D(6,1,26,2)           165.6031         estimate D2E/DX2                !
 ! D16   D(6,1,26,25)         -154.6864         estimate D2E/DX2                !
 ! D17   D(24,1,26,2)           35.7637         estimate D2E/DX2                !
 ! D18   D(24,1,26,25)          75.4742         estimate D2E/DX2                !
 ! D19   D(4,2,24,1)           162.6875         estimate D2E/DX2                !
 ! D20   D(4,2,24,7)            41.3088         estimate D2E/DX2                !
 ! D21   D(25,2,24,1)          -14.5281         estimate D2E/DX2                !
 ! D22   D(25,2,24,7)         -135.9067         estimate D2E/DX2                !
 ! D23   D(26,2,24,1)           49.8266         estimate D2E/DX2                !
 ! D24   D(26,2,24,7)          -71.552          estimate D2E/DX2                !
 ! D25   D(4,2,25,3)           166.7252         estimate D2E/DX2                !
 ! D26   D(4,2,25,20)          -15.6862         estimate D2E/DX2                !
 ! D27   D(24,2,25,3)          -16.0598         estimate D2E/DX2                !
 ! D28   D(24,2,25,20)         161.5288         estimate D2E/DX2                !
 ! D29   D(4,2,26,1)          -158.888          estimate D2E/DX2                !
 ! D30   D(24,2,26,1)          -34.3612         estimate D2E/DX2                !
 ! D31   D(1,3,25,2)            40.527          estimate D2E/DX2                !
 ! D32   D(1,3,25,20)         -137.0489         estimate D2E/DX2                !
 ! D33   D(1,3,25,26)          -35.7026         estimate D2E/DX2                !
 ! D34   D(5,3,25,2)          -132.1031         estimate D2E/DX2                !
 ! D35   D(5,3,25,20)           50.321          estimate D2E/DX2                !
 ! D36   D(5,3,25,26)          151.6673         estimate D2E/DX2                !
 ! D37   D(8,7,10,11)          180.0            estimate D2E/DX2                !
 ! D38   D(8,7,10,12)          -60.0            estimate D2E/DX2                !
 ! D39   D(8,7,10,13)           60.0            estimate D2E/DX2                !
 ! D40   D(9,7,10,11)           60.0            estimate D2E/DX2                !
 ! D41   D(9,7,10,12)          180.0            estimate D2E/DX2                !
 ! D42   D(9,7,10,13)          -60.0            estimate D2E/DX2                !
 ! D43   D(24,7,10,11)         -60.0            estimate D2E/DX2                !
 ! D44   D(24,7,10,12)          60.0            estimate D2E/DX2                !
 ! D45   D(24,7,10,13)         180.0            estimate D2E/DX2                !
 ! D46   D(8,7,24,1)          -176.108          estimate D2E/DX2                !
 ! D47   D(8,7,24,2)           -63.892          estimate D2E/DX2                !
 ! D48   D(9,7,24,1)           -56.108          estimate D2E/DX2                !
 ! D49   D(9,7,24,2)            56.108          estimate D2E/DX2                !
 ! D50   D(10,7,24,1)           63.892          estimate D2E/DX2                !
 ! D51   D(10,7,24,2)          176.108          estimate D2E/DX2                !
 ! D52   D(7,10,13,14)         -60.0            estimate D2E/DX2                !
 ! D53   D(7,10,13,15)          60.0            estimate D2E/DX2                !
 ! D54   D(7,10,13,16)         180.0            estimate D2E/DX2                !
 ! D55   D(11,10,13,14)        180.0            estimate D2E/DX2                !
 ! D56   D(11,10,13,15)        -60.0            estimate D2E/DX2                !
 ! D57   D(11,10,13,16)         60.0            estimate D2E/DX2                !
 ! D58   D(12,10,13,14)         60.0            estimate D2E/DX2                !
 ! D59   D(12,10,13,15)       -180.0            estimate D2E/DX2                !
 ! D60   D(12,10,13,16)        -60.0            estimate D2E/DX2                !
 ! D61   D(10,13,16,17)         60.0            estimate D2E/DX2                !
 ! D62   D(10,13,16,18)        180.0            estimate D2E/DX2                !
 ! D63   D(10,13,16,19)        -60.0            estimate D2E/DX2                !
 ! D64   D(14,13,16,17)        -60.0            estimate D2E/DX2                !
 ! D65   D(14,13,16,18)         60.0            estimate D2E/DX2                !
 ! D66   D(14,13,16,19)        180.0            estimate D2E/DX2                !
 ! D67   D(15,13,16,17)        180.0            estimate D2E/DX2                !
 ! D68   D(15,13,16,18)        -60.0            estimate D2E/DX2                !
 ! D69   D(15,13,16,19)         60.0            estimate D2E/DX2                !
 ! D70   D(21,20,25,2)         151.4742         estimate D2E/DX2                !
 ! D71   D(21,20,25,3)         -31.4742         estimate D2E/DX2                !
 ! D72   D(21,20,25,26)       -130.4286         estimate D2E/DX2                !
 ! D73   D(22,20,25,2)         -88.5258         estimate D2E/DX2                !
 ! D74   D(22,20,25,3)          88.5258         estimate D2E/DX2                !
 ! D75   D(22,20,25,26)        -10.4286         estimate D2E/DX2                !
 ! D76   D(23,20,25,2)          31.4742         estimate D2E/DX2                !
 ! D77   D(23,20,25,3)        -151.4742         estimate D2E/DX2                !
 ! D78   D(23,20,25,26)        109.5714         estimate D2E/DX2                !
 ! D79   D(3,25,26,1)           25.3903         estimate D2E/DX2                !
 ! D80   D(20,25,26,1)         153.9668         estimate D2E/DX2                !
 --------------------------------------------------------------------------------
 Trust Radius=3.00D-01 FncErr=1.00D-07 GrdErr=1.00D-06
 Number of steps in this run= 156 maximum allowed number of steps= 156.
 GradGradGradGradGradGradGradGradGradGradGradGradGradGradGradGradGradGrad

                          Input orientation:                          
 ---------------------------------------------------------------------
 Center     Atomic      Atomic             Coordinates (Angstroms)
 Number     Number       Type             X           Y           Z
 ---------------------------------------------------------------------
      1          6           0       -1.147166    0.851999    0.004358
      2          6           0        0.504714    2.420757    0.231794
      3          6           0       -1.421553    2.107393   -0.744190
      4          1           0        1.403438    2.890050    0.573788
      5          1           0       -1.968073    2.236911   -1.654926
      6          1           0       -1.820315    0.136260    0.428020
      7          6           0        0.932630    0.140732    1.142794
      8          1           0        1.991622    0.293819    1.141387
      9          1           0        0.526401    0.466530    2.077531
     10          6           0        0.630111   -1.356316    0.945493
     11          1           0       -0.428880   -1.509403    0.946899
     12          1           0        1.036341   -1.682114    0.010756
     13          6           0        1.267080   -2.164129    2.091489
     14          1           0        2.326071   -2.011042    2.090083
     15          1           0        0.860850   -1.838332    3.026227
     16          6           0        0.964560   -3.661178    1.894188
     17          1           0        1.370790   -3.986975    0.959451
     18          1           0        1.407129   -4.222451    2.690433
     19          1           0       -0.094431   -3.814265    1.895595
     20          6           0       -0.992839    4.423095    0.365211
     21          1           0       -1.670749    4.834131   -0.353390
     22          1           0       -1.463237    4.398444    1.325950
     23          1           0       -0.113405    5.030631    0.414160
     24          7           0        0.324615    0.911827    0.048888
     25          7           0       -0.623453    3.057617   -0.034691
     26         17           0       -1.005161    2.093341    1.874407
 ---------------------------------------------------------------------
                    Distance matrix (angstroms):
                    1          2          3          4          5
     1  C    0.000000
     2  C    2.289418   0.000000
     3  C    1.487154   2.182028   0.000000
     4  H    3.314133   1.070000   3.214062   0.000000
     5  H    2.311947   3.115797   1.070000   4.094001   0.000000
     6  H    1.070000   3.265454   2.327756   4.242309   2.961964
     7  C    2.475376   2.492297   3.601478   2.846783   4.542608
     8  H    3.384728   2.749930   4.300490   2.721864   5.222467
     9  H    2.692110   2.688163   3.801193   2.983938   4.825753
    10  C    2.986821   3.845955   4.365963   4.332184   5.140430
    11  H    2.642071   4.102332   4.114170   4.780354   4.813884
    12  H    3.345066   4.143070   4.579470   4.621303   5.211502
    13  C    4.391096   5.006081   5.789277   5.278895   6.623519
    14  H    4.960910   5.139204   6.248144   5.212591   7.107030
    15  H    4.516824   5.106420   5.915585   5.354106   6.820822
    16  C    5.329128   6.321783   6.777240   6.697361   7.482246
    17  H    5.537867   6.506812   6.916711   6.887908   7.531251
    18  H    6.284064   7.140830   7.737247   7.420772   8.485134
    19  H    5.143835   6.480949   6.617836   6.995614   7.261781
    20  C    3.592598   2.503962   2.603276   2.852346   3.132322
    21  H    4.032307   3.301432   2.765849   3.753630   2.920265
    22  H    3.797865   2.996875   3.088063   3.325481   3.716545
    23  H    4.324068   2.688266   3.405635   2.628380   3.940277
    24  N    1.473669   1.530608   2.259968   2.313600   3.148849
    25  N    2.267279   1.322636   1.429433   2.122878   2.259806
    26  Cl   2.249040   2.255017   2.651534   2.850912   3.661149
                    6          7          8          9         10
     6  H    0.000000
     7  C    2.844227   0.000000
     8  H    3.881311   1.070000   0.000000
     9  H    2.887393   1.070000   1.747303   0.000000
    10  C    2.915502   1.540000   2.148263   2.148263   0.000000
    11  H    2.216649   2.148263   3.024610   2.468846   1.070000
    12  H    3.411902   2.148263   2.468846   3.024610   1.070000
    13  C    4.194154   2.514809   2.732978   2.732978   1.540000
    14  H    4.956398   2.732978   2.514809   3.062243   2.148263
    15  H    4.223546   2.732978   3.062243   2.514809   2.148263
    16  C    4.932111   3.875582   4.154945   4.154945   2.514809
    17  H    5.240863   4.154945   4.329403   4.668704   2.732978
    18  H    5.876502   4.653783   4.810184   4.810184   3.444314
    19  H    4.554020   4.154945   4.668704   4.329403   2.732978
    20  C    4.366419   4.759275   5.153676   4.571055   6.030945
    21  H    4.764762   5.571727   6.021773   5.460109   6.730727
    22  H    4.370354   4.888951   5.368246   4.470289   6.135481
    23  H    5.183493   5.053336   5.234251   4.899712   6.451994
    24  N    2.312135   1.470000   2.086720   2.086720   2.457987
    25  N    3.190753   3.509428   3.982506   3.535163   4.692013
    26  Cl   2.566452   2.846572   3.571597   2.243536   3.929011
                   11         12         13         14         15
    11  H    0.000000
    12  H    1.747303   0.000000
    13  C    2.148263   2.148263   0.000000
    14  H    3.024610   2.468846   1.070000   0.000000
    15  H    2.468846   3.024610   1.070000   1.747303   0.000000
    16  C    2.732978   2.732978   1.540000   2.148263   2.148263
    17  H    3.062243   2.514809   2.148263   2.468846   3.024610
    18  H    3.710993   3.710993   2.148263   2.468846   2.468846
    19  H    2.514809   3.062243   2.148263   3.024610   2.468846
    20  C    5.987566   6.443352   7.174873   7.442343   7.051428
    21  H    6.593437   7.065577   7.973953   8.294669   7.896364
    22  H    6.009679   6.704536   7.148990   7.484937   6.869476
    23  H    6.569276   6.822433   7.515567   7.638385   7.413145
    24  N    2.690081   2.690081   3.810770   4.088455   4.088455
    25  N    4.675367   5.022153   5.946545   6.237440   5.961769
    26  Cl   3.764590   4.679208   4.830761   5.290518   4.501859
                   16         17         18         19         20
    16  C    0.000000
    17  H    1.070000   0.000000
    18  H    1.070000   1.747303   0.000000
    19  H    1.070000   1.747303   1.747303   0.000000
    20  C    8.457225   8.756092   9.268871   8.426347   0.000000
    21  H    9.174243   9.422655  10.037921   9.073999   1.070000
    22  H    8.436504   8.858967   9.188071   8.345461   1.070000
    23  H    8.882569   9.155184   9.649506   8.968121   1.070000
    24  N    4.972628   5.091352   5.874555   5.091352   3.763609
    25  N    7.168303   7.388613   8.034236   7.157418   1.470000
    26  Cl   6.082325   6.591853   6.809865   5.977431   2.775893
                   21         22         23         24         25
    21  H    0.000000
    22  H    1.747303   0.000000
    23  H    1.747303   1.747303   0.000000
    24  N    4.419024   4.121141   4.158105   0.000000
    25  N    2.086720   2.086720   2.086720   2.347389   0.000000
    26  Cl   3.594164   2.413326   3.399297   2.548882   2.172599
                   26
    26  Cl   0.000000
 Stoichiometry    C8H15ClN2
 Framework group  C1[X(C8H15ClN2)]
 Deg. of freedom    72
 Full point group                 C1      NOp   1
 Largest Abelian subgroup         C1      NOp   1
 Largest concise Abelian subgroup C1      NOp   1
                         Standard orientation:                         
 ---------------------------------------------------------------------
 Center     Atomic      Atomic             Coordinates (Angstroms)
 Number     Number       Type             X           Y           Z
 ---------------------------------------------------------------------
      1          6           0       -0.491766    0.928655   -0.850191
      2          6           0       -1.393585    0.197718    1.123104
      3          6           0       -1.900964    1.360591   -0.652154
      4          1           0       -1.480930   -0.315474    2.057932
      5          1           0       -2.383709    2.248574   -1.003357
      6          1           0        0.057588    0.746734   -1.750199
      7          6           0        1.047912   -0.148333    0.761323
      8          1           0        1.229078   -0.263243    1.809595
      9          1           0        0.822412   -1.101994    0.331696
     10          6           0        2.301860    0.435944    0.084686
     11          1           0        2.120694    0.550854   -0.963586
     12          1           0        2.527360    1.389605    0.514313
     13          6           0        3.491998   -0.517724    0.298436
     14          1           0        3.673163   -0.632634    1.346709
     15          1           0        3.266497   -1.471385   -0.131190
     16          6           0        4.745945    0.066553   -0.378200
     17          1           0        4.971445    1.020214    0.051426
     18          1           0        5.572859   -0.596061   -0.229686
     19          1           0        4.564779    0.181463   -1.426473
     20          6           0       -3.679841   -0.317096    0.241159
     21          1           0       -4.422594    0.325186   -0.183921
     22          1           0       -3.594262   -1.204202   -0.350971
     23          1           0       -3.964275   -0.580093    1.238571
     24          7           0       -0.088128    0.761986    0.557289
     25          7           0       -2.386230    0.380566    0.268360
     26         17           0       -1.198174   -1.196074   -0.638787
 ---------------------------------------------------------------------
 Rotational constants (GHZ):      2.6170531      0.4585334      0.4424525
 Standard basis: 6-311+G(d) (5D, 7F)
 There are   295 symmetry adapted basis functions of A   symmetry.
 Integral buffers will be    131072 words long.
 Raffenetti 2 integral format.
 Two-electron integral symmetry is turned on.
   295 basis functions,   488 primitive gaussians,   306 cartesian basis functions
    47 alpha electrons       47 beta electrons
       nuclear repulsion energy       755.3901240039 Hartrees.
 NAtoms=   26 NActive=   26 NUniq=   26 SFac= 7.50D-01 NAtFMM=   80 NAOKFM=F Big=F
 One-electron integrals computed using PRISM.
 NBasis=   295 RedAO= T  NBF=   295
 NBsUse=   295 1.00D-06 NBFU=   295
 Harris functional with IExCor= 1009 diagonalized for initial guess.
 ExpMin= 4.38D-02 ExpMax= 1.06D+05 ExpMxC= 3.62D+03 IAcc=2 IRadAn=         0 AccDes= 0.00D+00
 HarFok:  IExCor= 1009 AccDes= 0.00D+00 IRadAn=         0 IDoV= 1
 ScaDFX=  1.000000  1.000000  1.000000  1.000000
 FoFCou: FMM=F IPFlag=           0 FMFlag=      100000 FMFlg1=           0
         NFxFlg=           0 DoJE=T BraDBF=F KetDBF=T FulRan=T
         Omega=  0.000000  0.000000  1.000000  0.000000  0.000000 ICntrl=     500 IOpCl=  0
         NMat0=    1 NMatS0=    1 NMatT0=    0 NMatD0=    1 NMtDS0=    0 NMtDT0=    0
         I1Cent=           4 NGrid=           0.
 Petite list used in FoFCou.
 Initial guess orbital symmetries:
       Occupied  (A) (A) (A) (A) (A) (A) (A) (A) (A) (A) (A) (A)
                 (A) (A) (A) (A) (A) (A) (A) (A) (A) (A) (A) (A)
                 (A) (A) (A) (A) (A) (A) (A) (A) (A) (A) (A) (A)
                 (A) (A) (A) (A) (A) (A) (A) (A) (A) (A) (A)
       Virtual   (A) (A) (A) (A) (A) (A) (A) (A) (A) (A) (A) (A)
                 (A) (A) (A) (A) (A) (A) (A) (A) (A) (A) (A) (A)
                 (A) (A) (A) (A) (A) (A) (A) (A) (A) (A) (A) (A)
                 (A) (A) (A) (A) (A) (A) (A) (A) (A) (A) (A) (A)
                 (A) (A) (A) (A) (A) (A) (A) (A) (A) (A) (A) (A)
                 (A) (A) (A) (A) (A) (A) (A) (A) (A) (A) (A) (A)
                 (A) (A) (A) (A) (A) (A) (A) (A) (A) (A) (A) (A)
                 (A) (A) (A) (A) (A) (A) (A) (A) (A) (A) (A) (A)
                 (A) (A) (A) (A) (A) (A) (A) (A) (A) (A) (A) (A)
                 (A) (A) (A) (A) (A) (A) (A) (A) (A) (A) (A) (A)
                 (A) (A) (A) (A) (A) (A) (A) (A) (A) (A) (A) (A)
                 (A) (A) (A) (A) (A) (A) (A) (A) (A) (A) (A) (A)
                 (A) (A) (A) (A) (A) (A) (A) (A) (A) (A) (A) (A)
                 (A) (A) (A) (A) (A) (A) (A) (A) (A) (A) (A) (A)
                 (A) (A) (A) (A) (A) (A) (A) (A) (A) (A) (A) (A)
                 (A) (A) (A) (A) (A) (A) (A) (A) (A) (A) (A) (A)
                 (A) (A) (A) (A) (A) (A) (A) (A) (A) (A) (A) (A)
                 (A) (A) (A) (A) (A) (A) (A) (A) (A) (A) (A) (A)
                 (A) (A) (A) (A) (A) (A) (A) (A) (A) (A) (A) (A)
                 (A) (A) (A) (A) (A) (A) (A) (A) (A) (A) (A) (A)
                 (A) (A) (A) (A) (A) (A) (A) (A)
 The electronic state of the initial guess is 1-A.
 Requested convergence on RMS density matrix=1.00D-08 within 128 cycles.
 Requested convergence on MAX density matrix=1.00D-06.
 Requested convergence on             energy=1.00D-06.
 No special actions if energy rises.
 SCF Done:  E(RM062X) =  -883.224119199     A.U. after   17 cycles
             Convg  =    0.8967D-08             -V/T =  2.0023

 **********************************************************************

            Population analysis using the SCF density.

 **********************************************************************

 Orbital symmetries:
       Occupied  (A) (A) (A) (A) (A) (A) (A) (A) (A) (A) (A) (A)
                 (A) (A) (A) (A) (A) (A) (A) (A) (A) (A) (A) (A)
                 (A) (A) (A) (A) (A) (A) (A) (A) (A) (A) (A) (A)
                 (A) (A) (A) (A) (A) (A) (A) (A) (A) (A) (A)
       Virtual   (A) (A) (A) (A) (A) (A) (A) (A) (A) (A) (A) (A)
                 (A) (A) (A) (A) (A) (A) (A) (A) (A) (A) (A) (A)
                 (A) (A) (A) (A) (A) (A) (A) (A) (A) (A) (A) (A)
                 (A) (A) (A) (A) (A) (A) (A) (A) (A) (A) (A) (A)
                 (A) (A) (A) (A) (A) (A) (A) (A) (A) (A) (A) (A)
                 (A) (A) (A) (A) (A) (A) (A) (A) (A) (A) (A) (A)
                 (A) (A) (A) (A) (A) (A) (A) (A) (A) (A) (A) (A)
                 (A) (A) (A) (A) (A) (A) (A) (A) (A) (A) (A) (A)
                 (A) (A) (A) (A) (A) (A) (A) (A) (A) (A) (A) (A)
                 (A) (A) (A) (A) (A) (A) (A) (A) (A) (A) (A) (A)
                 (A) (A) (A) (A) (A) (A) (A) (A) (A) (A) (A) (A)
                 (A) (A) (A) (A) (A) (A) (A) (A) (A) (A) (A) (A)
                 (A) (A) (A) (A) (A) (A) (A) (A) (A) (A) (A) (A)
                 (A) (A) (A) (A) (A) (A) (A) (A) (A) (A) (A) (A)
                 (A) (A) (A) (A) (A) (A) (A) (A) (A) (A) (A) (A)
                 (A) (A) (A) (A) (A) (A) (A) (A) (A) (A) (A) (A)
                 (A) (A) (A) (A) (A) (A) (A) (A) (A) (A) (A) (A)
                 (A) (A) (A) (A) (A) (A) (A) (A) (A) (A) (A) (A)
                 (A) (A) (A) (A) (A) (A) (A) (A) (A) (A) (A) (A)
                 (A) (A) (A) (A) (A) (A) (A) (A) (A) (A) (A) (A)
                 (A) (A) (A) (A) (A) (A) (A) (A)
 The electronic state is 1-A.
 Alpha  occ. eigenvalues -- -102.55131 -14.83851 -14.80147 -10.66671 -10.61578
 Alpha  occ. eigenvalues --  -10.58930 -10.55997 -10.55836 -10.53123 -10.52883
 Alpha  occ. eigenvalues --  -10.51671  -9.70011  -7.42145  -7.42019  -7.41934
 Alpha  occ. eigenvalues --   -1.15555  -1.03473  -0.90514  -0.86624  -0.84358
 Alpha  occ. eigenvalues --   -0.82809  -0.80908  -0.73728  -0.69304  -0.67680
 Alpha  occ. eigenvalues --   -0.66554  -0.62252  -0.57255  -0.57107  -0.55524
 Alpha  occ. eigenvalues --   -0.53751  -0.52229  -0.51852  -0.49827  -0.48705
 Alpha  occ. eigenvalues --   -0.48408  -0.45360  -0.45092  -0.42438  -0.40480
 Alpha  occ. eigenvalues --   -0.40373  -0.38575  -0.37055  -0.33202  -0.29153
 Alpha  occ. eigenvalues --   -0.24942  -0.21374
 Alpha virt. eigenvalues --   -0.02641  -0.00932   0.00715   0.01873   0.02218
 Alpha virt. eigenvalues --    0.03125   0.03453   0.03886   0.04503   0.05342
 Alpha virt. eigenvalues --    0.05917   0.06418   0.06649   0.07195   0.08019
 Alpha virt. eigenvalues --    0.08056   0.08782   0.09674   0.09998   0.10749
 Alpha virt. eigenvalues --    0.11477   0.12029   0.12895   0.13274   0.13493
 Alpha virt. eigenvalues --    0.14253   0.14983   0.15438   0.16501   0.17298
 Alpha virt. eigenvalues --    0.17569   0.17865   0.18192   0.18686   0.19106
 Alpha virt. eigenvalues --    0.19578   0.19980   0.20428   0.20665   0.21730
 Alpha virt. eigenvalues --    0.21861   0.22300   0.23116   0.23534   0.24304
 Alpha virt. eigenvalues --    0.24354   0.24764   0.25277   0.25658   0.26974
 Alpha virt. eigenvalues --    0.27138   0.27736   0.28116   0.28612   0.28985
 Alpha virt. eigenvalues --    0.29657   0.29960   0.31005   0.31632   0.32240
 Alpha virt. eigenvalues --    0.32776   0.33493   0.34363   0.34716   0.34972
 Alpha virt. eigenvalues --    0.37354   0.38629   0.39499   0.40435   0.42096
 Alpha virt. eigenvalues --    0.42722   0.44440   0.45495   0.47001   0.48826
 Alpha virt. eigenvalues --    0.49751   0.51364   0.52096   0.53496   0.54336
 Alpha virt. eigenvalues --    0.55468   0.56173   0.57576   0.58377   0.59954
 Alpha virt. eigenvalues --    0.60274   0.62713   0.63606   0.64790   0.65362
 Alpha virt. eigenvalues --    0.66293   0.66569   0.67729   0.68155   0.69936
 Alpha virt. eigenvalues --    0.70944   0.71614   0.72152   0.72463   0.73749
 Alpha virt. eigenvalues --    0.74138   0.74773   0.74986   0.75455   0.76544
 Alpha virt. eigenvalues --    0.77177   0.78194   0.80472   0.80639   0.81232
 Alpha virt. eigenvalues --    0.82923   0.83338   0.85883   0.86808   0.89814
 Alpha virt. eigenvalues --    0.93427   0.94782   0.96134   0.97318   0.97958
 Alpha virt. eigenvalues --    1.00118   1.01921   1.04778   1.06360   1.08066
 Alpha virt. eigenvalues --    1.08795   1.11025   1.11535   1.13225   1.13483
 Alpha virt. eigenvalues --    1.19934   1.21189   1.22859   1.28188   1.31370
 Alpha virt. eigenvalues --    1.35725   1.37575   1.39912   1.43381   1.43895
 Alpha virt. eigenvalues --    1.47787   1.50572   1.53060   1.53669   1.57324
 Alpha virt. eigenvalues --    1.58134   1.59138   1.61535   1.63031   1.63590
 Alpha virt. eigenvalues --    1.64285   1.65867   1.66869   1.68163   1.70565
 Alpha virt. eigenvalues --    1.71767   1.75509   1.75641   1.76480   1.80482
 Alpha virt. eigenvalues --    1.81782   1.82176   1.83880   1.84781   1.85521
 Alpha virt. eigenvalues --    1.88295   1.88881   1.91944   1.92806   1.98404
 Alpha virt. eigenvalues --    1.99294   2.03315   2.16990   2.19361   2.23095
 Alpha virt. eigenvalues --    2.29272   2.31727   2.33531   2.40856   2.42640
 Alpha virt. eigenvalues --    2.44047   2.48231   2.49930   2.51202   2.55125
 Alpha virt. eigenvalues --    2.56039   2.56872   2.57404   2.58665   2.62159
 Alpha virt. eigenvalues --    2.63320   2.63507   2.65109   2.66500   2.66765
 Alpha virt. eigenvalues --    2.68831   2.71177   2.72675   2.74663   2.78074
 Alpha virt. eigenvalues --    2.84149   2.87190   2.99442   3.03285   3.04077
 Alpha virt. eigenvalues --    3.05572   3.07196   3.07988   3.15413   3.21195
 Alpha virt. eigenvalues --    3.23186   3.26536   3.28211   3.29451   3.32726
 Alpha virt. eigenvalues --    3.34463   3.41105   3.43863   3.45226   3.49631
 Alpha virt. eigenvalues --    3.53345   3.56461   3.69784   3.75095   3.89938
 Alpha virt. eigenvalues --    3.97074   4.06849   4.10693   4.30081   4.52758
 Alpha virt. eigenvalues --    4.76731   4.80446   4.92158  10.16111  23.57178
 Alpha virt. eigenvalues --   23.60620  23.65882  23.72037  23.76620  23.80580
 Alpha virt. eigenvalues --   23.81510  23.85442  26.23951  26.47457  26.83924
 Alpha virt. eigenvalues --   35.55550  35.59579 216.30065
          Condensed to atoms (all electrons):
              1          2          3          4          5          6
     1  C    7.000190  -0.419176  -0.653080  -0.009774  -0.011689   0.312555
     2  C   -0.419176   7.513794   0.281346   0.337891   0.022053  -0.010832
     3  C   -0.653080   0.281346   7.353751   0.025070   0.389016   0.023567
     4  H   -0.009774   0.337891   0.025070   0.380898  -0.000394   0.000052
     5  H   -0.011689   0.022053   0.389016  -0.000394   0.403221  -0.001439
     6  H    0.312555  -0.010832   0.023567   0.000052  -0.001439   0.373035
     7  C   -0.435889  -0.184352  -0.030762   0.011354   0.004891   0.000414
     8  H    0.003524   0.002868  -0.007679   0.000917   0.000030  -0.000105
     9  H    0.032762   0.016717   0.005982  -0.000445   0.000031   0.000390
    10  C    0.131561  -0.361270  -0.148101   0.002423   0.001190   0.013150
    11  H   -0.000932  -0.001920  -0.005037   0.000023  -0.000003   0.003741
    12  H    0.024208  -0.002754   0.000548  -0.000040   0.000002   0.000057
    13  C   -0.011641   0.019016   0.020866  -0.000333   0.000223  -0.003360
    14  H   -0.007798  -0.001297  -0.001394   0.000005   0.000000   0.000027
    15  H    0.011713  -0.002163   0.000818   0.000003   0.000000   0.000006
    16  C   -0.009666  -0.036851  -0.010788  -0.000047   0.000030   0.001004
    17  H    0.003180   0.000081   0.000353   0.000000   0.000000  -0.000012
    18  H   -0.000112   0.000185  -0.000064   0.000000   0.000000   0.000001
    19  H   -0.003770  -0.000234  -0.000322   0.000000   0.000000   0.000021
    20  C   -0.063911  -0.226923  -0.087423   0.002008  -0.010721   0.002083
    21  H    0.019837  -0.015290  -0.004524  -0.000163  -0.000279   0.000018
    22  H   -0.007011  -0.036169   0.020111   0.000300  -0.000305  -0.000100
    23  H   -0.000012   0.057135  -0.015839   0.000322   0.000264   0.000002
    24  N    0.216677   0.239682  -0.211841  -0.031007   0.026492  -0.039794
    25  N   -0.039966  -0.208759  -0.061424  -0.016403  -0.072947   0.015435
    26  Cl   0.019158  -0.785512  -0.185106   0.014177  -0.006521   0.018509
              7          8          9         10         11         12
     1  C   -0.435889   0.003524   0.032762   0.131561  -0.000932   0.024208
     2  C   -0.184352   0.002868   0.016717  -0.361270  -0.001920  -0.002754
     3  C   -0.030762  -0.007679   0.005982  -0.148101  -0.005037   0.000548
     4  H    0.011354   0.000917  -0.000445   0.002423   0.000023  -0.000040
     5  H    0.004891   0.000030   0.000031   0.001190  -0.000003   0.000002
     6  H    0.000414  -0.000105   0.000390   0.013150   0.003741   0.000057
     7  C    8.789277   0.397867   0.383517  -1.848454  -0.083331   0.005308
     8  H    0.397867   0.442696  -0.029502   0.017096   0.005366  -0.004622
     9  H    0.383517  -0.029502   0.400557  -0.034259  -0.004067   0.004310
    10  C   -1.848454   0.017096  -0.034259   8.033358   0.485857   0.385248
    11  H   -0.083331   0.005366  -0.004067   0.485857   0.464710  -0.032151
    12  H    0.005308  -0.004622   0.004310   0.385248  -0.032151   0.424881
    13  C    0.705344  -0.015354  -0.034241  -0.994481  -0.085652  -0.049334
    14  H   -0.046623   0.001960  -0.000182   0.005614   0.005928  -0.007133
    15  H    0.019296   0.000462   0.003036  -0.072284  -0.004469   0.006002
    16  C   -0.271862   0.008694   0.000369   0.283322   0.008022  -0.008274
    17  H    0.014910   0.000077  -0.000004  -0.054999   0.000305   0.004526
    18  H    0.006717  -0.000027  -0.000009   0.065143  -0.000315  -0.000230
    19  H   -0.006048  -0.000046   0.000015  -0.034235   0.002584  -0.000546
    20  C    0.050378   0.000347   0.000322  -0.033481   0.000028   0.000223
    21  H   -0.002053   0.000001   0.000028  -0.000087   0.000001   0.000000
    22  H   -0.003016  -0.000006  -0.000082  -0.000035   0.000001   0.000000
    23  H    0.009420  -0.000008   0.000072  -0.000623   0.000000   0.000000
    24  N   -0.758878  -0.068146  -0.089986   0.472363  -0.009949  -0.012954
    25  N    0.470626  -0.003310   0.025485  -0.178181   0.000816   0.002528
    26  Cl  -0.644860  -0.003049  -0.023901   0.372492   0.011778  -0.005121
             13         14         15         16         17         18
     1  C   -0.011641  -0.007798   0.011713  -0.009666   0.003180  -0.000112
     2  C    0.019016  -0.001297  -0.002163  -0.036851   0.000081   0.000185
     3  C    0.020866  -0.001394   0.000818  -0.010788   0.000353  -0.000064
     4  H   -0.000333   0.000005   0.000003  -0.000047   0.000000   0.000000
     5  H    0.000223   0.000000   0.000000   0.000030   0.000000   0.000000
     6  H   -0.003360   0.000027   0.000006   0.001004  -0.000012   0.000001
     7  C    0.705344  -0.046623   0.019296  -0.271862   0.014910   0.006717
     8  H   -0.015354   0.001960   0.000462   0.008694   0.000077  -0.000027
     9  H   -0.034241  -0.000182   0.003036   0.000369  -0.000004  -0.000009
    10  C   -0.994481   0.005614  -0.072284   0.283322  -0.054999   0.065143
    11  H   -0.085652   0.005928  -0.004469   0.008022   0.000305  -0.000315
    12  H   -0.049334  -0.007133   0.006002  -0.008274   0.004526  -0.000230
    13  C    6.511766   0.399657   0.420697  -0.293752   0.025946  -0.091179
    14  H    0.399657   0.458478  -0.034627  -0.026332  -0.007485  -0.003913
    15  H    0.420697  -0.034627   0.445363  -0.054689   0.006438  -0.004025
    16  C   -0.293752  -0.026332  -0.054689   6.304088   0.352514   0.373926
    17  H    0.025946  -0.007485   0.006438   0.352514   0.456439  -0.025304
    18  H   -0.091179  -0.003913  -0.004025   0.373926  -0.025304   0.438357
    19  H    0.003031   0.006094  -0.007695   0.387790  -0.034084  -0.024640
    20  C   -0.001534  -0.000032   0.000147  -0.000323   0.000003   0.000001
    21  H   -0.000042   0.000000   0.000000  -0.000001   0.000000   0.000000
    22  H    0.000002   0.000000   0.000000   0.000007   0.000000   0.000000
    23  H    0.000091   0.000000   0.000000   0.000000   0.000000   0.000000
    24  N   -0.097831  -0.000374  -0.002016  -0.023833  -0.000159   0.000301
    25  N    0.000129  -0.000095   0.000583   0.000552   0.000003   0.000003
    26  Cl  -0.076618   0.002167  -0.002211   0.006604  -0.000115  -0.000015
             19         20         21         22         23         24
     1  C   -0.003770  -0.063911   0.019837  -0.007011  -0.000012   0.216677
     2  C   -0.000234  -0.226923  -0.015290  -0.036169   0.057135   0.239682
     3  C   -0.000322  -0.087423  -0.004524   0.020111  -0.015839  -0.211841
     4  H    0.000000   0.002008  -0.000163   0.000300   0.000322  -0.031007
     5  H    0.000000  -0.010721  -0.000279  -0.000305   0.000264   0.026492
     6  H    0.000021   0.002083   0.000018  -0.000100   0.000002  -0.039794
     7  C   -0.006048   0.050378  -0.002053  -0.003016   0.009420  -0.758878
     8  H   -0.000046   0.000347   0.000001  -0.000006  -0.000008  -0.068146
     9  H    0.000015   0.000322   0.000028  -0.000082   0.000072  -0.089986
    10  C   -0.034235  -0.033481  -0.000087  -0.000035  -0.000623   0.472363
    11  H    0.002584   0.000028   0.000001   0.000001   0.000000  -0.009949
    12  H   -0.000546   0.000223   0.000000   0.000000   0.000000  -0.012954
    13  C    0.003031  -0.001534  -0.000042   0.000002   0.000091  -0.097831
    14  H    0.006094  -0.000032   0.000000   0.000000   0.000000  -0.000374
    15  H   -0.007695   0.000147   0.000000   0.000000   0.000000  -0.002016
    16  C    0.387790  -0.000323  -0.000001   0.000007   0.000000  -0.023833
    17  H   -0.034084   0.000003   0.000000   0.000000   0.000000  -0.000159
    18  H   -0.024640   0.000001   0.000000   0.000000   0.000000   0.000301
    19  H    0.452541  -0.000004   0.000000   0.000000   0.000000  -0.000042
    20  C   -0.000004   5.844895   0.422288   0.378694   0.403014  -0.076417
    21  H    0.000000   0.422288   0.425792  -0.023615  -0.024112  -0.006870
    22  H    0.000000   0.378694  -0.023615   0.361433  -0.025849   0.009447
    23  H    0.000000   0.403014  -0.024112  -0.025849   0.445858  -0.003398
    24  N   -0.000042  -0.076417  -0.006870   0.009447  -0.003398   7.853075
    25  N   -0.000008   0.115273  -0.056315  -0.066322  -0.071240  -0.805133
    26  Cl   0.000294   0.021655   0.001386   0.058393  -0.027914   0.165873
             25         26
     1  C   -0.039966   0.019158
     2  C   -0.208759  -0.785512
     3  C   -0.061424  -0.185106
     4  H   -0.016403   0.014177
     5  H   -0.072947  -0.006521
     6  H    0.015435   0.018509
     7  C    0.470626  -0.644860
     8  H   -0.003310  -0.003049
     9  H    0.025485  -0.023901
    10  C   -0.178181   0.372492
    11  H    0.000816   0.011778
    12  H    0.002528  -0.005121
    13  C    0.000129  -0.076618
    14  H   -0.000095   0.002167
    15  H    0.000583  -0.002211
    16  C    0.000552   0.006604
    17  H    0.000003  -0.000115
    18  H    0.000003  -0.000015
    19  H   -0.000008   0.000294
    20  C    0.115273   0.021655
    21  H   -0.056315   0.001386
    22  H   -0.066322   0.058393
    23  H   -0.071240  -0.027914
    24  N   -0.805133   0.165873
    25  N    7.981389  -0.315170
    26  Cl  -0.315170  18.868924
 Mulliken atomic charges:
              1
     1  C   -0.100941
     2  C   -0.197268
     3  C   -0.698046
     4  H    0.283162
     5  H    0.256857
     6  H    0.291574
     7  C   -0.553190
     8  H    0.249948
     9  H    0.343084
    10  C   -0.508328
    11  H    0.238668
    12  H    0.265316
    13  C   -0.351416
    14  H    0.257355
    15  H    0.269615
    16  C   -0.990502
    17  H    0.257389
    18  H    0.265199
    19  H    0.259303
    20  C   -0.740589
    21  H    0.263998
    22  H    0.334121
    23  H    0.252817
    24  N    0.254717
    25  N    0.282452
    26  Cl  -0.485296
 Sum of Mulliken atomic charges =   0.00000
 Mulliken charges with hydrogens summed into heavy atoms:
              1
     1  C    0.190633
     2  C    0.085894
     3  C   -0.441189
     7  C    0.039841
    10  C   -0.004343
    13  C    0.175555
    16  C   -0.208611
    20  C    0.110348
    24  N    0.254717
    25  N    0.282452
    26  Cl  -0.485296
 Sum of Mulliken charges with hydrogens summed into heavy atoms =   0.00000
 Electronic spatial extent (au):  <R**2>=           2697.8499
 Charge=              0.0000 electrons
 Dipole moment (field-independent basis, Debye):
    X=             -0.9799    Y=              1.6990    Z=              2.6890  Tot=              3.3283
 Quadrupole moment (field-independent basis, Debye-Ang):
   XX=            -62.6433   YY=            -85.1284   ZZ=            -73.8870
   XY=             -2.2592   XZ=             -4.8567   YZ=             -5.8950
 Traceless Quadrupole moment (field-independent basis, Debye-Ang):
   XX=             11.2430   YY=            -11.2422   ZZ=             -0.0007
   XY=             -2.2592   XZ=             -4.8567   YZ=             -5.8950
 Octapole moment (field-independent basis, Debye-Ang**2):
  XXX=            -63.9458  YYY=              2.5127  ZZZ=             11.0293  XYY=              1.4490
  XXY=             -5.7238  XXZ=             12.4394  XZZ=             -1.3847  YZZ=             -0.0371
  YYZ=              0.3436  XYZ=              7.6246
 Hexadecapole moment (field-independent basis, Debye-Ang**3):
 XXXX=          -2823.4843 YYYY=           -436.0733 ZZZZ=           -295.4085 XXXY=              3.7166
 XXXZ=              3.4544 YYYX=            -10.9214 YYYZ=            -13.1857 ZZZX=            -24.9137
 ZZZY=            -11.5630 XXYY=           -561.5638 XXZZ=           -554.8173 YYZZ=           -128.6073
 XXYZ=             -7.4157 YYXZ=              5.1665 ZZXY=              5.7315
 N-N= 7.553901240039D+02 E-N=-3.588090312246D+03  KE= 8.811891522152D+02
 Calling FoFJK, ICntrl=      2127 FMM=F ISym2X=0 I1Cent= 0 IOpClX= 0 NMat=1 NMatS=1 NMatT=0.
 ***** Axes restored to original set *****
 -------------------------------------------------------------------
 Center     Atomic                   Forces (Hartrees/Bohr)
 Number     Number              X              Y              Z
 -------------------------------------------------------------------
      1        6           0.044775906    0.099010577   -0.060720326
      2        6          -0.025999005   -0.057501759   -0.011747005
      3        6          -0.025466640   -0.049964750    0.045552686
      4        1           0.006754009   -0.003198311    0.007456193
      5        1          -0.014268698    0.013481094    0.006279242
      6        1           0.002274148   -0.020653129   -0.017080904
      7        6          -0.002223606   -0.023594674   -0.021853800
      8        1           0.016060849    0.003161259   -0.001369321
      9        1          -0.003052732    0.004417125    0.012687907
     10        6           0.021567122    0.016276554    0.023504111
     11        1          -0.014654482   -0.004603721   -0.001122761
     12        1           0.003162984   -0.005392319   -0.015304175
     13        6          -0.019537391   -0.013693143   -0.025300813
     14        1           0.015916596    0.003769706    0.002513677
     15        1          -0.003273206    0.006030972    0.014737573
     16        6           0.007935773    0.024590113    0.007468223
     17        1           0.004634008   -0.007524041   -0.012721624
     18        1           0.004543875   -0.011580997    0.009409897
     19        1          -0.014493073   -0.005182948   -0.000399300
     20        6           0.011621380   -0.008875778   -0.022475274
     21        1          -0.007493430    0.002967692   -0.011144996
     22        1          -0.003966375   -0.005664331    0.010569276
     23        1           0.012365721    0.007660516   -0.000284092
     24        7          -0.005345999    0.058642306    0.021627298
     25        7           0.045447461    0.008192564   -0.133944634
     26       17          -0.057285197   -0.030770581    0.173662941
 -------------------------------------------------------------------
 Cartesian Forces:  Max     0.173662941 RMS     0.034390999

 GradGradGradGradGradGradGradGradGradGradGradGradGradGradGradGradGradGrad
 Berny optimization.
 Internal  Forces:  Max     0.089881565 RMS     0.014586520
 Search for a local minimum.
 Step number   1 out of a maximum of  156
 All quantities printed in internal units (Hartrees-Bohrs-Radians)
 Mixed Optimization -- RFO/linear search
 Second derivative matrix not updated -- first step.
     Eigenvalues ---    0.00237   0.00237   0.00237   0.00766   0.00766
     Eigenvalues ---    0.01136   0.01767   0.02593   0.02770   0.03492
     Eigenvalues ---    0.03787   0.03840   0.03840   0.04502   0.04607
     Eigenvalues ---    0.04896   0.04896   0.05496   0.05720   0.05720
     Eigenvalues ---    0.06065   0.06065   0.06589   0.07655   0.07655
     Eigenvalues ---    0.08506   0.08860   0.09670   0.09978   0.10475
     Eigenvalues ---    0.11478   0.11701   0.11701   0.12453   0.15157
     Eigenvalues ---    0.15630   0.16000   0.16000   0.16000   0.16000
     Eigenvalues ---    0.16000   0.16000   0.17214   0.19789   0.21948
     Eigenvalues ---    0.21948   0.21985   0.26150   0.28519   0.28519
     Eigenvalues ---    0.28519   0.29224   0.30666   0.35740   0.35740
     Eigenvalues ---    0.36222   0.37230   0.37230   0.37230   0.37230
     Eigenvalues ---    0.37230   0.37230   0.37230   0.37230   0.37230
     Eigenvalues ---    0.37230   0.37230   0.37230   0.37230   0.37230
     Eigenvalues ---    0.37230   0.494801000.000001000.000001000.00000
     Eigenvalues --- 1000.000001000.000001000.000001000.000001000.00000
     Eigenvalues --- 1000.000001000.000001000.000001000.000001000.00000
     Eigenvalues --- 1000.000001000.000001000.000001000.000001000.00000
     Eigenvalues --- 1000.000001000.000001000.000001000.000001000.00000
     Eigenvalues --- 1000.000001000.000001000.000001000.000001000.00000
     Eigenvalues --- 1000.000001000.000001000.000001000.000001000.00000
     Eigenvalues --- 1000.000001000.000001000.000001000.000001000.00000
     Eigenvalues --- 1000.000001000.000001000.000001000.000001000.00000
     Eigenvalues --- 1000.000001000.000001000.000001000.000001000.00000
     Eigenvalues --- 1000.000001000.000001000.000001000.000001000.00000
     Eigenvalues --- 1000.000001000.000001000.000001000.000001000.00000
     Eigenvalues --- 1000.000001000.000001000.000001000.000001000.00000
     Eigenvalues --- 1000.000001000.000001000.000001000.000001000.00000
     Eigenvalues --- 1000.000001000.000001000.000001000.000001000.00000
     Eigenvalues --- 1000.000001000.000001000.000001000.000001000.00000
     Eigenvalues --- 1000.000001000.000001000.000001000.000001000.00000
     Eigenvalues --- 1000.000001000.000001000.000001000.000001000.00000
     Eigenvalues --- 1000.000001000.00000
 RFO step:  Lambda=-1.31863175D-01 EMin= 2.36824078D-03
 Linear search not attempted -- first point.
 Maximum step size (   0.300) exceeded in Quadratic search.
    -- Step size scaled by   0.398
 Iteration  1 RMS(Cart)=  0.04261775 RMS(Int)=  0.00062626
 Iteration  2 RMS(Cart)=  0.00136634 RMS(Int)=  0.00022251
 Iteration  3 RMS(Cart)=  0.00000054 RMS(Int)=  0.00022251
 Variable       Old X    -DE/DX   Delta X   Delta X   Delta X     New X
                                 (Linear)    (Quad)   (Total)
    R1        2.81031  -0.05307   0.00000  -0.04487  -0.04478   2.76554
    R2        2.02201   0.00563   0.00000   0.00444   0.00444   2.02645
    R3        2.78483  -0.01081   0.00000  -0.00897  -0.00906   2.77577
    R4        4.25007   0.03679   0.00000   0.07063   0.07122   4.32129
    R5        2.02201   0.00665   0.00000   0.00524   0.00524   2.02725
    R6        2.89243  -0.05946   0.00000  -0.06055  -0.06079   2.83164
    R7        2.49942  -0.01533   0.00000  -0.00921  -0.00968   2.48974
    R8        4.26136   0.04747   0.00000   0.07951   0.07984   4.34121
    R9        2.02201   0.00357   0.00000   0.00282   0.00282   2.02483
   R10        2.70124  -0.02541   0.00000  -0.01738  -0.01794   2.68330
   R11        2.02201   0.01635   0.00000   0.01289   0.01289   2.03490
   R12        2.02201   0.01358   0.00000   0.01071   0.01071   2.03272
   R13        2.91018  -0.00414   0.00000  -0.00394  -0.00394   2.90624
   R14        2.77790   0.00809   0.00000   0.00657   0.00657   2.78447
   R15        2.02201   0.01516   0.00000   0.01195   0.01195   2.03396
   R16        2.02201   0.01621   0.00000   0.01278   0.01278   2.03479
   R17        2.91018  -0.00306   0.00000  -0.00292  -0.00292   2.90726
   R18        2.02201   0.01630   0.00000   0.01285   0.01285   2.03486
   R19        2.02201   0.01595   0.00000   0.01258   0.01258   2.03458
   R20        2.91018  -0.00130   0.00000  -0.00124  -0.00124   2.90894
   R21        2.02201   0.01516   0.00000   0.01196   0.01196   2.03396
   R22        2.02201   0.01496   0.00000   0.01180   0.01180   2.03380
   R23        2.02201   0.01508   0.00000   0.01189   0.01189   2.03390
   R24        2.02201   0.01337   0.00000   0.01055   0.01055   2.03255
   R25        2.02201   0.01137   0.00000   0.00896   0.00896   2.03097
   R26        2.02201   0.01450   0.00000   0.01143   0.01143   2.03344
   R27        2.77790  -0.01313   0.00000  -0.01067  -0.01067   2.76723
   R28        4.10562   0.08988   0.00000   0.16466   0.16452   4.27013
    A1        2.27561  -0.00562   0.00000  -0.00883  -0.00918   2.26643
    A2        1.73676   0.01417   0.00000   0.02493   0.02502   1.76178
    A3        1.53503   0.02494   0.00000   0.03010   0.02977   1.56481
    A4        2.26985  -0.00788   0.00000  -0.01474  -0.01496   2.25490
    A5        1.65058  -0.01187   0.00000  -0.00581  -0.00551   1.64507
    A6        1.45998   0.00635   0.00000   0.00944   0.00916   1.46913
    A7        2.17658  -0.01169   0.00000  -0.01319  -0.01343   2.16314
    A8        2.17687   0.00633   0.00000   0.00757   0.00733   2.18420
    A9        1.97496  -0.01015   0.00000  -0.01020  -0.01000   1.96495
   A10        1.92863   0.00641   0.00000   0.00784   0.00721   1.93584
   A11        1.43551   0.01218   0.00000   0.01648   0.01622   1.45172
   A12        2.24573   0.01055   0.00000   0.01359   0.01378   2.25950
   A13        1.78064  -0.00403   0.00000  -0.00534  -0.00641   1.77423
   A14        2.24873  -0.00869   0.00000  -0.01280  -0.01253   2.23619
   A15        1.91063   0.00038   0.00000  -0.00062  -0.00062   1.91001
   A16        1.91063  -0.00234   0.00000  -0.00362  -0.00361   1.90703
   A17        1.91063  -0.00376   0.00000  -0.00604  -0.00603   1.90460
   A18        1.91063  -0.00015   0.00000   0.00156   0.00154   1.91217
   A19        1.91063  -0.00037   0.00000   0.00136   0.00134   1.91197
   A20        1.91063   0.00624   0.00000   0.00736   0.00736   1.91799
   A21        1.91063   0.00033   0.00000   0.00118   0.00118   1.91182
   A22        1.91063  -0.00098   0.00000  -0.00069  -0.00070   1.90994
   A23        1.91063   0.00369   0.00000   0.00473   0.00473   1.91536
   A24        1.91063  -0.00081   0.00000  -0.00269  -0.00269   1.90794
   A25        1.91063  -0.00206   0.00000  -0.00288  -0.00289   1.90775
   A26        1.91063  -0.00017   0.00000   0.00035   0.00035   1.91098
   A27        1.91063  -0.00182   0.00000  -0.00188  -0.00188   1.90875
   A28        1.91063  -0.00174   0.00000  -0.00168  -0.00169   1.90894
   A29        1.91063   0.00677   0.00000   0.00839   0.00838   1.91902
   A30        1.91063  -0.00054   0.00000  -0.00294  -0.00295   1.90768
   A31        1.91063  -0.00138   0.00000  -0.00104  -0.00104   1.90959
   A32        1.91063  -0.00130   0.00000  -0.00084  -0.00085   1.90979
   A33        1.91063   0.00291   0.00000   0.00393   0.00392   1.91455
   A34        1.91063   0.00512   0.00000   0.00707   0.00705   1.91769
   A35        1.91063   0.00275   0.00000   0.00368   0.00367   1.91430
   A36        1.91063  -0.00381   0.00000  -0.00506  -0.00508   1.90555
   A37        1.91063  -0.00315   0.00000  -0.00447  -0.00448   1.90615
   A38        1.91063  -0.00383   0.00000  -0.00515  -0.00516   1.90547
   A39        1.91063   0.00478   0.00000   0.00637   0.00634   1.91698
   A40        1.91063   0.00147   0.00000   0.00212   0.00212   1.91275
   A41        1.91063  -0.00299   0.00000  -0.00408  -0.00410   1.90654
   A42        1.91063   0.00333   0.00000   0.00456   0.00455   1.91519
   A43        1.91063  -0.00705   0.00000  -0.00966  -0.00968   1.90096
   A44        1.91063   0.00046   0.00000   0.00070   0.00070   1.91133
   A45        1.73265  -0.00864   0.00000  -0.00928  -0.00968   1.72297
   A46        1.99794   0.01475   0.00000   0.02472   0.02473   2.02268
   A47        1.96009   0.00911   0.00000   0.01503   0.01495   1.97503
   A48        1.82984   0.00650   0.00000   0.01831   0.01793   1.84778
   A49        2.22282  -0.00105   0.00000  -0.00813  -0.00808   2.21474
   A50        2.22966  -0.00560   0.00000  -0.01067  -0.01041   2.21925
   A51        1.61382   0.00027   0.00000  -0.01011  -0.01053   1.60329
   A52        1.70024   0.00511   0.00000   0.01923   0.01974   1.71997
   A53        1.06642  -0.03077   0.00000  -0.04008  -0.03947   1.02695
   A54        1.07631  -0.03678   0.00000  -0.04913  -0.04825   1.02806
    D1       -1.02606   0.01123   0.00000   0.02888   0.02873  -0.99733
    D2        2.24385   0.02934   0.00000   0.06622   0.06623   2.31008
    D3        2.15967  -0.00421   0.00000  -0.00224  -0.00249   2.15718
    D4       -0.85361   0.01391   0.00000   0.03510   0.03501  -0.81859
    D5       -2.67119   0.00576   0.00000   0.01116   0.01127  -2.65993
    D6        0.59872   0.02388   0.00000   0.04850   0.04877   0.64748
    D7        0.64645   0.00562   0.00000   0.00713   0.00718   0.65363
    D8        2.73721   0.01771   0.00000   0.03033   0.03027   2.76748
    D9       -2.45121  -0.00982   0.00000  -0.02405  -0.02395  -2.47517
   D10       -0.36046   0.00227   0.00000  -0.00085  -0.00086  -0.36132
   D11       -0.86920  -0.01924   0.00000  -0.02223  -0.02211  -0.89131
   D12        1.22155  -0.00715   0.00000   0.00096   0.00098   1.22254
   D13       -1.11775  -0.00883   0.00000  -0.01897  -0.01943  -1.13718
   D14       -0.42467  -0.01103   0.00000  -0.02359  -0.02371  -0.44839
   D15        2.89032  -0.00481   0.00000  -0.01223  -0.01249   2.87783
   D16       -2.69979  -0.00700   0.00000  -0.01686  -0.01677  -2.71656
   D17        0.62419   0.00213   0.00000   0.00204   0.00203   0.62623
   D18        1.31727  -0.00007   0.00000  -0.00258  -0.00225   1.31502
   D19        2.83943   0.00951   0.00000   0.01548   0.01532   2.85475
   D20        0.72098  -0.00671   0.00000  -0.01464  -0.01472   0.70626
   D21       -0.25356  -0.01367   0.00000  -0.03366  -0.03355  -0.28712
   D22       -2.37202  -0.02990   0.00000  -0.06378  -0.06359  -2.43561
   D23        0.86964   0.01518   0.00000   0.01843   0.01838   0.88801
   D24       -1.24882  -0.00104   0.00000  -0.01169  -0.01166  -1.26048
   D25        2.90990   0.00378   0.00000   0.00983   0.00991   2.91981
   D26       -0.27378  -0.00007   0.00000  -0.00209  -0.00224  -0.27601
   D27       -0.28030   0.02637   0.00000   0.05828   0.05880  -0.22150
   D28        2.81921   0.02252   0.00000   0.04636   0.04665   2.86586
   D29       -2.77312  -0.00384   0.00000  -0.00449  -0.00452  -2.77763
   D30       -0.59972  -0.01277   0.00000  -0.01323  -0.01367  -0.61338
   D31        0.70733  -0.02565   0.00000  -0.06099  -0.06073   0.64660
   D32       -2.39195  -0.02193   0.00000  -0.04909  -0.04862  -2.44057
   D33       -0.62313  -0.01629   0.00000  -0.03467  -0.03384  -0.65697
   D34       -2.30563  -0.00949   0.00000  -0.02630  -0.02665  -2.33228
   D35        0.87827  -0.00577   0.00000  -0.01440  -0.01453   0.86373
   D36        2.64709  -0.00013   0.00000   0.00002   0.00024   2.64734
   D37        3.14159   0.00060   0.00000   0.00138   0.00138  -3.14021
   D38       -1.04720  -0.00079   0.00000  -0.00162  -0.00162  -1.04882
   D39        1.04720   0.00066   0.00000   0.00128   0.00128   1.04848
   D40        1.04720   0.00166   0.00000   0.00340   0.00341   1.05060
   D41        3.14159   0.00027   0.00000   0.00040   0.00041  -3.14119
   D42       -1.04720   0.00172   0.00000   0.00331   0.00331  -1.04389
   D43       -1.04720  -0.00162   0.00000  -0.00373  -0.00374  -1.05093
   D44        1.04720  -0.00301   0.00000  -0.00673  -0.00674   1.04046
   D45        3.14159  -0.00156   0.00000  -0.00382  -0.00383   3.13776
   D46       -3.07366  -0.00111   0.00000  -0.00452  -0.00461  -3.07828
   D47       -1.11513   0.00323   0.00000   0.00919   0.00927  -1.10586
   D48       -0.97927  -0.00318   0.00000  -0.00815  -0.00824  -0.98751
   D49        0.97927   0.00116   0.00000   0.00556   0.00564   0.98491
   D50        1.11513   0.00024   0.00000  -0.00090  -0.00098   1.11415
   D51        3.07366   0.00458   0.00000   0.01281   0.01291   3.08657
   D52       -1.04720   0.00153   0.00000   0.00291   0.00290  -1.04430
   D53        1.04720  -0.00131   0.00000  -0.00288  -0.00288   1.04432
   D54        3.14159   0.00019   0.00000   0.00019   0.00019  -3.14140
   D55       -3.14159   0.00013   0.00000   0.00033   0.00033  -3.14126
   D56       -1.04720  -0.00271   0.00000  -0.00546  -0.00545  -1.05265
   D57        1.04720  -0.00121   0.00000  -0.00238  -0.00238   1.04482
   D58        1.04720   0.00249   0.00000   0.00517   0.00517   1.05237
   D59        3.14159  -0.00035   0.00000  -0.00061  -0.00061   3.14098
   D60       -1.04720   0.00115   0.00000   0.00246   0.00246  -1.04473
   D61        1.04720  -0.00026   0.00000  -0.00056  -0.00056   1.04664
   D62        3.14159  -0.00001   0.00000  -0.00002  -0.00002   3.14157
   D63       -1.04720   0.00013   0.00000   0.00026   0.00026  -1.04693
   D64       -1.04720  -0.00133   0.00000  -0.00276  -0.00276  -1.04996
   D65        1.04720  -0.00108   0.00000  -0.00222  -0.00222   1.04498
   D66        3.14159  -0.00095   0.00000  -0.00194  -0.00194   3.13965
   D67        3.14159   0.00097   0.00000   0.00200   0.00200  -3.13959
   D68       -1.04720   0.00122   0.00000   0.00254   0.00254  -1.04466
   D69        1.04720   0.00136   0.00000   0.00282   0.00282   1.05002
   D70        2.64372   0.00415   0.00000   0.00962   0.00959   2.65332
   D71       -0.54933  -0.00025   0.00000  -0.00429  -0.00442  -0.55375
   D72       -2.27641  -0.00328   0.00000  -0.00400  -0.00387  -2.28028
   D73       -1.54507   0.00385   0.00000   0.00900   0.00899  -1.53608
   D74        1.54507  -0.00055   0.00000  -0.00491  -0.00502   1.54004
   D75       -0.18201  -0.00358   0.00000  -0.00462  -0.00447  -0.18649
   D76        0.54933   0.00389   0.00000   0.00909   0.00908   0.55840
   D77       -2.64372  -0.00050   0.00000  -0.00481  -0.00493  -2.64866
   D78        1.91238  -0.00353   0.00000  -0.00453  -0.00439   1.90800
   D79        0.44314   0.00751   0.00000   0.02054   0.02029   0.46344
   D80        2.68723   0.00265   0.00000   0.01068   0.01059   2.69782
         Item               Value     Threshold  Converged?
 Maximum Force            0.089882     0.000450     NO 
 RMS     Force            0.014587     0.000300     NO 
 Maximum Displacement     0.190553     0.001800     NO 
 RMS     Displacement     0.042565     0.001200     NO 
 Predicted change in Energy=-4.793000D-02
 GradGradGradGradGradGradGradGradGradGradGradGradGradGradGradGradGradGrad

                          Input orientation:                          
 ---------------------------------------------------------------------
 Center     Atomic      Atomic             Coordinates (Angstroms)
 Number     Number       Type             X           Y           Z
 ---------------------------------------------------------------------
      1          6           0       -1.166838    0.887627    0.030502
      2          6           0        0.473052    2.409814    0.283294
      3          6           0       -1.447055    2.114071   -0.717176
      4          1           0        1.378414    2.868072    0.631376
      5          1           0       -1.986935    2.244706   -1.633451
      6          1           0       -1.842394    0.158025    0.432046
      7          6           0        0.917041    0.139080    1.177680
      8          1           0        1.981746    0.299917    1.168567
      9          1           0        0.516529    0.447805    2.127070
     10          6           0        0.627738   -1.355353    0.958251
     11          1           0       -0.435752   -1.520941    0.965183
     12          1           0        1.029811   -1.662256    0.007688
     13          6           0        1.278388   -2.181034    2.081525
     14          1           0        2.342417   -2.015789    2.075639
     15          1           0        0.875528   -1.872267    3.031027
     16          6           0        0.991958   -3.678116    1.866395
     17          1           0        1.394760   -3.992023    0.918928
     18          1           0        1.447649   -4.254528    2.652774
     19          1           0       -0.070733   -3.848530    1.873458
     20          6           0       -0.966896    4.440343    0.297737
     21          1           0       -1.625271    4.837796   -0.454226
     22          1           0       -1.455100    4.456011    1.255068
     23          1           0       -0.067956    5.030354    0.338652
     24          7           0        0.299670    0.932699    0.100572
     25          7           0       -0.628519    3.056233   -0.040009
     26         17           0       -1.064164    2.105616    1.963136
 ---------------------------------------------------------------------
                    Distance matrix (angstroms):
                    1          2          3          4          5
     1  C    0.000000
     2  C    2.251709   0.000000
     3  C    1.463458   2.185226   0.000000
     4  H    3.280476   1.072774   3.220309   0.000000
     5  H    2.298469   3.122932   1.071492   4.104096   0.000000
     6  H    1.072349   3.233259   2.302850   4.213988   2.939627
     7  C    2.493770   2.480581   3.616631   2.821118   4.557323
     8  H    3.399143   2.740717   4.313219   2.692211   5.232966
     9  H    2.724475   2.692745   3.836905   2.972816   4.861862
    10  C    3.018639   3.828313   4.375926   4.302056   5.149161
    11  H    2.685017   4.091666   4.131148   4.760889   4.831063
    12  H    3.365663   4.119185   4.573941   4.586325   5.201773
    13  C    4.427472   4.995807   5.805920   5.254180   6.637060
    14  H    4.992723   5.127669   6.262241   5.183367   7.117054
    15  H    4.559761   5.103747   5.944267   5.336856   6.848395
    16  C    5.373724   6.311763   6.795076   6.672870   7.496835
    17  H    5.582299   6.499006   6.930882   6.866138   7.539714
    18  H    6.336688   7.139869   7.764982   7.404207   8.509297
    19  H    5.198953   6.480061   6.645168   6.982516   7.286821
    20  C    3.568359   2.489319   2.583049   2.843208   3.096899
    21  H    4.006115   3.292718   2.742185   3.752395   2.871495
    22  H    3.783652   2.974733   3.061780   3.307468   3.676446
    23  H    4.297056   2.676376   3.394318   2.617850   3.915547
    24  N    1.468873   1.498438   2.261726   2.278401   3.155434
    25  N    2.235534   1.317513   1.419939   2.124605   2.245646
    26  Cl   2.286726   2.297268   2.707536   2.884634   3.715682
                    6          7          8          9         10
     6  H    0.000000
     7  C    2.858463   0.000000
     8  H    3.897004   1.076823   0.000000
     9  H    2.919177   1.075668   1.757117   0.000000
    10  C    2.944275   1.537913   2.148835   2.151717   0.000000
    11  H    2.254286   2.151947   3.033346   2.476446   1.076326
    12  H    3.426816   2.150909   2.470616   3.034402   1.076765
    13  C    4.234532   2.516037   2.735567   2.737390   1.538454
    14  H    4.993948   2.735232   2.513038   3.066890   2.150548
    15  H    4.273626   2.735349   3.067712   2.515701   2.150581
    16  C    4.980651   3.879552   4.158292   4.161395   2.520438
    17  H    5.285746   4.166675   4.339081   4.684332   2.746251
    18  H    5.935204   4.664895   4.819866   4.822374   3.456715
    19  H    4.611825   4.166634   4.681790   4.343696   2.746160
    20  C    4.372960   4.777487   5.157127   4.635447   6.047250
    21  H    4.767900   5.586089   6.019665   5.524709   6.739899
    22  H    4.393181   4.926351   5.393747   4.551200   6.180475
    23  H    5.186226   5.059521   5.221788   4.953768   6.453306
    24  N    2.301833   1.473478   2.090551   2.094956   2.465446
    25  N    3.177410   3.518707   3.983894   3.579282   4.694337
    26  Cl   2.596727   2.899893   3.628975   2.296476   3.981286
                   11         12         13         14         15
    11  H    0.000000
    12  H    1.756316   0.000000
    13  C    2.149470   2.152144   0.000000
    14  H    3.032526   2.474741   1.076800   0.000000
    15  H    2.471962   3.034549   1.076655   1.756454   0.000000
    16  C    2.739332   2.742247   1.539342   2.151941   2.151979
    17  H    3.075574   2.528114   2.155192   2.478212   3.037092
    18  H    3.723931   3.727056   2.157395   2.479042   2.479026
    19  H    2.525049   3.077677   2.154985   3.036958   2.478102
    20  C    6.022002   6.427494   7.215666   7.469547   7.121407
    21  H    6.622931   7.036583   8.007824   8.313507   7.964039
    22  H    6.070178   6.720411   7.225328   7.548422   6.973733
    23  H    6.591456   6.790115   7.540184   7.646906   7.468951
    24  N    2.703470   2.697318   3.818036   4.094788   4.097195
    25  N    4.690212   5.001647   5.963738   6.247226   5.998627
    26  Cl   3.813493   4.733431   4.886404   5.348218   4.552620
                   16         17         18         19         20
    16  C    0.000000
    17  H    1.076328   0.000000
    18  H    1.076243   1.754403   0.000000
    19  H    1.076292   1.754819   1.754324   0.000000
    20  C    8.497480   8.778843   9.326147   8.484776   0.000000
    21  H    9.206298   9.432488  10.087946   9.126169   1.075581
    22  H    8.516210   8.922105   9.287251   8.441817   1.074743
    23  H    8.904767   9.158578   9.688203   9.010562   1.076049
    24  N    4.985680   5.110950   5.893973   5.112776   3.734519
    25  N    7.184133   7.395345   8.062802   7.186670   1.464354
    26  Cl   6.139100   6.657167   6.872863   6.037119   2.869489
                   21         22         23         24         25
    21  H    0.000000
    22  H    1.759660   0.000000
    23  H    1.758114   1.758937   0.000000
    24  N    4.388961   4.101927   4.120996   0.000000
    25  N    2.083040   2.078422   2.086809   2.321787   0.000000
    26  Cl   3.690974   2.485668   3.490770   2.589387   2.259657
                   26
    26  Cl   0.000000
 Stoichiometry    C8H15ClN2
 Framework group  C1[X(C8H15ClN2)]
 Deg. of freedom    72
 Full point group                 C1      NOp   1
 Largest Abelian subgroup         C1      NOp   1
 Largest concise Abelian subgroup C1      NOp   1
                         Standard orientation:                         
 ---------------------------------------------------------------------
 Center     Atomic      Atomic             Coordinates (Angstroms)
 Number     Number       Type             X           Y           Z
 ---------------------------------------------------------------------
      1          6           0        0.522700   -0.852749   -0.910891
      2          6           0        1.373662   -0.256903    1.086865
      3          6           0        1.904736   -1.307800   -0.754001
      4          1           0        1.445025    0.189588    2.059695
      5          1           0        2.386721   -2.174145   -1.160489
      6          1           0       -0.029989   -0.628396   -1.802031
      7          6           0       -1.058288    0.107797    0.761448
      8          1           0       -1.236305    0.140302    1.822958
      9          1           0       -0.849275    1.100221    0.403020
     10          6           0       -2.308009   -0.442558    0.053998
     11          1           0       -2.134311   -0.478248   -1.007620
     12          1           0       -2.515566   -1.435709    0.414547
     13          6           0       -3.512484    0.470231    0.341916
     14          1           0       -3.686888    0.506865    1.403867
     15          1           0       -3.302729    1.462761   -0.018742
     16          6           0       -4.766457   -0.076515   -0.363913
     17          1           0       -4.981390   -1.068215   -0.005004
     18          1           0       -5.608231    0.562874   -0.161684
     19          1           0       -4.597509   -0.113155   -1.426231
     20          6           0        3.698297    0.205239    0.325811
     21          1           0        4.429501   -0.441749   -0.125433
     22          1           0        3.661018    1.139256   -0.204560
     23          1           0        3.958839    0.381895    1.354787
     24          7           0        0.096399   -0.767023    0.492144
     25          7           0        2.381919   -0.432545    0.257162
     26         17           0        1.211055    1.304258   -0.590566
 ---------------------------------------------------------------------
 Rotational constants (GHZ):      2.5444930      0.4546595      0.4373444
 Standard basis: 6-311+G(d) (5D, 7F)
 There are   295 symmetry adapted basis functions of A   symmetry.
 Integral buffers will be    131072 words long.
 Raffenetti 2 integral format.
 Two-electron integral symmetry is turned on.
   295 basis functions,   488 primitive gaussians,   306 cartesian basis functions
    47 alpha electrons       47 beta electrons
       nuclear repulsion energy       751.3087484769 Hartrees.
 NAtoms=   26 NActive=   26 NUniq=   26 SFac= 7.50D-01 NAtFMM=   80 NAOKFM=F Big=F
 One-electron integrals computed using PRISM.
 NBasis=   295 RedAO= T  NBF=   295
 NBsUse=   295 1.00D-06 NBFU=   295
 Initial guess read from the read-write file.
[...]

 Orbital symmetries:
       Occupied  (A) (A) (A) (A) (A) (A) (A) (A) (A) (A) (A) (A)
                 (A) (A) (A) (A) (A) (A) (A) (A) (A) (A) (A) (A)
                 (A) (A) (A) (A) (A) (A) (A) (A) (A) (A) (A) (A)
                 (A) (A) (A) (A) (A) (A) (A) (A) (A) (A) (A)
       Virtual   (A) (A) (A) (A) (A) (A) (A) (A) (A) (A) (A) (A)
                 (A) (A) (A) (A) (A) (A) (A) (A) (A) (A) (A) (A)
                 (A) (A) (A) (A) (A) (A) (A) (A) (A) (A) (A) (A)
                 (A) (A) (A) (A) (A) (A) (A) (A) (A) (A) (A) (A)
                 (A) (A) (A) (A) (A) (A) (A) (A) (A) (A) (A) (A)
                 (A) (A) (A) (A) (A) (A) (A) (A) (A) (A) (A) (A)
                 (A) (A) (A) (A) (A) (A) (A) (A) (A) (A) (A) (A)
                 (A) (A) (A) (A) (A) (A) (A) (A) (A) (A) (A) (A)
                 (A) (A) (A) (A) (A) (A) (A) (A) (A) (A) (A) (A)
                 (A) (A) (A) (A) (A) (A) (A) (A) (A) (A) (A) (A)
                 (A) (A) (A) (A) (A) (A) (A) (A) (A) (A) (A) (A)
                 (A) (A) (A) (A) (A) (A) (A) (A) (A) (A) (A) (A)
                 (A) (A) (A) (A) (A) (A) (A) (A) (A) (A) (A) (A)
                 (A) (A) (A) (A) (A) (A) (A) (A) (A) (A) (A) (A)
                 (A) (A) (A) (A) (A) (A) (A) (A) (A) (A) (A) (A)
                 (A) (A) (A) (A) (A) (A) (A) (A) (A) (A) (A) (A)
                 (A) (A) (A) (A) (A) (A) (A) (A) (A) (A) (A) (A)
                 (A) (A) (A) (A) (A) (A) (A) (A) (A) (A) (A) (A)
                 (A) (A) (A) (A) (A) (A) (A) (A) (A) (A) (A) (A)
                 (A) (A) (A) (A) (A) (A) (A) (A) (A) (A) (A) (A)
                 (A) (A) (A) (A) (A) (A) (A) (A)
 The electronic state is 1-A.
 Alpha  occ. eigenvalues -- -102.51525 -14.84489 -14.84266 -10.65715 -10.60923
 Alpha  occ. eigenvalues --  -10.60825 -10.59979 -10.59746 -10.56119 -10.55154
 Alpha  occ. eigenvalues --  -10.53748  -9.65713  -7.37847  -7.37793  -7.37782
 Alpha  occ. eigenvalues --   -1.20110  -1.07698  -0.93398  -0.90816  -0.86956
 Alpha  occ. eigenvalues --   -0.82782  -0.77209  -0.74965  -0.72803  -0.70873
 Alpha  occ. eigenvalues --   -0.68393  -0.65090  -0.60117  -0.57287  -0.56776
 Alpha  occ. eigenvalues --   -0.55163  -0.54930  -0.53417  -0.53125  -0.50941
 Alpha  occ. eigenvalues --   -0.49317  -0.48750  -0.46871  -0.44645  -0.42258
 Alpha  occ. eigenvalues --   -0.41719  -0.40999  -0.37443  -0.33941  -0.25631
 Alpha  occ. eigenvalues --   -0.25442  -0.24852
 Alpha virt. eigenvalues --   -0.00672   0.00521   0.00837   0.01724   0.02323
 Alpha virt. eigenvalues --    0.02627   0.02869   0.03156   0.04396   0.04658
 Alpha virt. eigenvalues --    0.05128   0.06084   0.06288   0.06732   0.07538
 Alpha virt. eigenvalues --    0.07850   0.08673   0.08988   0.09679   0.10577
 Alpha virt. eigenvalues --    0.10753   0.11851   0.12062   0.13088   0.13237
 Alpha virt. eigenvalues --    0.13965   0.14872   0.15148   0.15801   0.16218
 Alpha virt. eigenvalues --    0.16529   0.17035   0.17978   0.18137   0.18606
 Alpha virt. eigenvalues --    0.19227   0.19601   0.19795   0.20424   0.20446
 Alpha virt. eigenvalues --    0.21071   0.21738   0.22025   0.22755   0.23198
 Alpha virt. eigenvalues --    0.23312   0.23604   0.24444   0.24863   0.25412
 Alpha virt. eigenvalues --    0.26150   0.26627   0.27062   0.27460   0.27535
 Alpha virt. eigenvalues --    0.28819   0.29229   0.29924   0.30028   0.30944
 Alpha virt. eigenvalues --    0.31728   0.33041   0.33404   0.33782   0.35004
 Alpha virt. eigenvalues --    0.35529   0.38046   0.40613   0.41981   0.42797
 Alpha virt. eigenvalues --    0.43776   0.45306   0.45649   0.45714   0.47800
 Alpha virt. eigenvalues --    0.48055   0.50486   0.52501   0.52990   0.55124
 Alpha virt. eigenvalues --    0.55743   0.57531   0.58563   0.59118   0.61265
 Alpha virt. eigenvalues --    0.61863   0.62294   0.63284   0.63562   0.64587
 Alpha virt. eigenvalues --    0.65218   0.66602   0.66762   0.67076   0.69140
 Alpha virt. eigenvalues --    0.69625   0.70439   0.71300   0.71687   0.71816
 Alpha virt. eigenvalues --    0.73184   0.73506   0.73733   0.74801   0.75780
 Alpha virt. eigenvalues --    0.77593   0.77999   0.78889   0.80238   0.80979
 Alpha virt. eigenvalues --    0.81873   0.84893   0.87901   0.88455   0.89719
 Alpha virt. eigenvalues --    0.93284   0.95440   0.97358   0.99021   1.00931
 Alpha virt. eigenvalues --    1.00987   1.02791   1.03802   1.05271   1.07200
 Alpha virt. eigenvalues --    1.08522   1.10707   1.11905   1.12876   1.14481
 Alpha virt. eigenvalues --    1.15879   1.18098   1.19314   1.21758   1.25201
 Alpha virt. eigenvalues --    1.26125   1.29253   1.31600   1.34178   1.37342
 Alpha virt. eigenvalues --    1.41827   1.44064   1.45968   1.50945   1.53623
 Alpha virt. eigenvalues --    1.55947   1.56637   1.58263   1.61046   1.61383
 Alpha virt. eigenvalues --    1.61754   1.63547   1.65255   1.67568   1.69154
 Alpha virt. eigenvalues --    1.70422   1.71409   1.74495   1.75013   1.76837
 Alpha virt. eigenvalues --    1.79257   1.83584   1.84328   1.85580   1.86995
 Alpha virt. eigenvalues --    1.88017   1.91111   1.92784   1.97100   1.97951
 Alpha virt. eigenvalues --    1.99036   2.08595   2.19078   2.21889   2.26547
 Alpha virt. eigenvalues --    2.28117   2.33869   2.37615   2.43062   2.44722
 Alpha virt. eigenvalues --    2.45292   2.47486   2.48503   2.51796   2.53851
 Alpha virt. eigenvalues --    2.54074   2.54722   2.55872   2.57423   2.60256
 Alpha virt. eigenvalues --    2.60792   2.61395   2.62696   2.63281   2.64417
 Alpha virt. eigenvalues --    2.66268   2.67938   2.68796   2.72280   2.81178
 Alpha virt. eigenvalues --    2.86444   2.90124   2.98981   3.01884   3.04108
 Alpha virt. eigenvalues --    3.06521   3.11199   3.14652   3.16957   3.19493
 Alpha virt. eigenvalues --    3.21877   3.25090   3.26645   3.27885   3.28927
 Alpha virt. eigenvalues --    3.34998   3.37948   3.45370   3.47486   3.54322
 Alpha virt. eigenvalues --    3.57460   3.61324   3.66313   3.69874   3.89635
 Alpha virt. eigenvalues --    3.93412   3.97302   4.01072   4.11853   4.67574
 Alpha virt. eigenvalues --    4.85954   4.91950   5.19480  10.04342  23.53265
 Alpha virt. eigenvalues --   23.59544  23.67041  23.70802  23.76733  23.81035
 Alpha virt. eigenvalues --   23.88991  24.16918  26.08811  26.19879  26.33307
 Alpha virt. eigenvalues --   35.53998  35.65800 216.14158
          Condensed to atoms (all electrons):
              1          2          3          4          5          6
     1  C    7.341589   0.419882  -2.034772   0.009355   0.046205   0.433157
     2  C    0.419882   8.201231  -1.464521   0.274402   0.030378   0.013227
     3  C   -2.034772  -1.464521   9.186116   0.011773   0.330356  -0.077774
     4  H    0.009355   0.274402   0.011773   0.392730  -0.000215  -0.000183
     5  H    0.046205   0.030378   0.330356  -0.000215   0.392994  -0.000903
     6  H    0.433157   0.013227  -0.077774  -0.000183  -0.000903   0.394496
     7  C   -0.347068  -0.396229   0.210579   0.083881  -0.008659   0.036241
     8  H   -0.029136  -0.003527   0.008619   0.002085   0.000011  -0.000126
     9  H    0.031722  -0.007375  -0.017789  -0.000027   0.000013  -0.000516
    10  C   -0.059475  -0.128660  -0.009896  -0.017254   0.006336  -0.025305
    11  H    0.012810  -0.004012   0.027561  -0.000054   0.000007  -0.000590
    12  H    0.028744   0.020631  -0.010304  -0.000011  -0.000012   0.000062
    13  C   -0.137880  -0.052401  -0.136875   0.006396  -0.000286   0.011113
    14  H   -0.003142  -0.001175  -0.001144  -0.000011   0.000000  -0.000041
    15  H    0.011131   0.003228   0.002270  -0.000003   0.000000   0.000045
    16  C   -0.025977  -0.031684   0.018036  -0.000109   0.000015  -0.000567
    17  H    0.003167  -0.000320   0.001050   0.000000   0.000000   0.000026
    18  H    0.000681   0.000142   0.000000   0.000000   0.000000   0.000001
    19  H   -0.003705   0.000163  -0.001151   0.000000   0.000000  -0.000033
    20  C    0.218393  -0.075425  -0.338844  -0.008612  -0.010565   0.001854
    21  H    0.070662   0.044434  -0.077651  -0.000341   0.000108   0.000057
    22  H   -0.011551  -0.044537   0.013351   0.000216  -0.000079  -0.000018
    23  H   -0.008022   0.005431   0.015458   0.002373   0.000155   0.000003
    24  N   -0.157649  -0.085722   0.528543  -0.050876   0.023288  -0.082303
    25  N    0.167008  -0.077919   0.264286  -0.003587  -0.081948   0.019159
    26  Cl  -0.028388  -0.519251   0.245794  -0.022967  -0.001843  -0.002631
              7          8          9         10         11         12
     1  C   -0.347068  -0.029136   0.031722  -0.059475   0.012810   0.028744
     2  C   -0.396229  -0.003527  -0.007375  -0.128660  -0.004012   0.020631
     3  C    0.210579   0.008619  -0.017789  -0.009896   0.027561  -0.010304
     4  H    0.083881   0.002085  -0.000027  -0.017254  -0.000054  -0.000011
     5  H   -0.008659   0.000011   0.000013   0.006336   0.000007  -0.000012
     6  H    0.036241  -0.000126  -0.000516  -0.025305  -0.000590   0.000062
     7  C    8.160143   0.443216   0.297980  -1.652443  -0.063043  -0.052089
     8  H    0.443216   0.466305  -0.030256  -0.019569   0.006591  -0.006312
     9  H    0.297980  -0.030256   0.333215   0.019338  -0.006218   0.002410
    10  C   -1.652443  -0.019569   0.019338   8.607121   0.497414   0.404855
    11  H   -0.063043   0.006591  -0.006218   0.497414   0.468562  -0.042220
    12  H   -0.052089  -0.006312   0.002410   0.404855  -0.042220   0.436231
    13  C    0.670780  -0.001146  -0.031062  -1.572027  -0.158315  -0.056784
    14  H   -0.039735   0.003572   0.000657  -0.016903   0.006640  -0.008552
    15  H    0.049893  -0.000971   0.000399  -0.044460  -0.005932   0.006376
    16  C   -0.303240   0.017561  -0.003896   0.355917   0.026233  -0.031357
    17  H    0.010377   0.000008  -0.000031  -0.027529  -0.000493   0.004723
    18  H    0.008069  -0.000046  -0.000024   0.086549  -0.000184  -0.000134
    19  H   -0.001976  -0.000040   0.000101  -0.067332   0.002651  -0.000689
    20  C   -0.028069   0.000564   0.000794  -0.054989  -0.000090   0.000950
    21  H   -0.001204  -0.000002  -0.000001  -0.000561   0.000000   0.000000
    22  H   -0.003415   0.000020   0.000019   0.000743   0.000002   0.000000
    23  H    0.006524  -0.000064   0.000017   0.000981  -0.000001   0.000000
    24  N   -0.305735  -0.108110   0.017716   0.268074  -0.019052   0.031010
    25  N    0.060791  -0.000453   0.007270  -0.246777  -0.000418   0.004460
    26  Cl  -0.182202  -0.002807   0.025245   0.140791   0.000099  -0.000092
             13         14         15         16         17         18
     1  C   -0.137880  -0.003142   0.011131  -0.025977   0.003167   0.000681
     2  C   -0.052401  -0.001175   0.003228  -0.031684  -0.000320   0.000142
     3  C   -0.136875  -0.001144   0.002270   0.018036   0.001050   0.000000
     4  H    0.006396  -0.000011  -0.000003  -0.000109   0.000000   0.000000
     5  H   -0.000286   0.000000   0.000000   0.000015   0.000000   0.000000
     6  H    0.011113  -0.000041   0.000045  -0.000567   0.000026   0.000001
     7  C    0.670780  -0.039735   0.049893  -0.303240   0.010377   0.008069
     8  H   -0.001146   0.003572  -0.000971   0.017561   0.000008  -0.000046
     9  H   -0.031062   0.000657   0.000399  -0.003896  -0.000031  -0.000024
    10  C   -1.572027  -0.016903  -0.044460   0.355917  -0.027529   0.086549
    11  H   -0.158315   0.006640  -0.005932   0.026233  -0.000493  -0.000184
    12  H   -0.056784  -0.008552   0.006376  -0.031357   0.004723  -0.000134
    13  C    7.670408   0.411919   0.372140  -0.426844  -0.008190  -0.119697
    14  H    0.411919   0.467839  -0.038295  -0.029565  -0.008316  -0.003607
    15  H    0.372140  -0.038295   0.442611  -0.072947   0.006054  -0.003772
    16  C   -0.426844  -0.029565  -0.072947   6.474752   0.363979   0.378092
    17  H   -0.008190  -0.008316   0.006054   0.363979   0.462245  -0.026037
    18  H   -0.119697  -0.003607  -0.003772   0.378092  -0.026037   0.431866
    19  H    0.052766   0.006418  -0.008045   0.363650  -0.037148  -0.024240
    20  C   -0.000965  -0.000059   0.000112  -0.000647   0.000003   0.000000
    21  H    0.000036   0.000000   0.000000  -0.000004   0.000000   0.000000
    22  H   -0.000055   0.000000   0.000000   0.000005   0.000000   0.000000
    23  H   -0.000030   0.000000   0.000000   0.000000   0.000000   0.000000
    24  N   -0.089741  -0.004010   0.005525  -0.041323  -0.000365   0.000446
    25  N    0.000028  -0.000204   0.000363  -0.003291   0.000008   0.000003
    26  Cl  -0.024498   0.000127  -0.000268   0.000983  -0.000004   0.000000
             19         20         21         22         23         24
     1  C   -0.003705   0.218393   0.070662  -0.011551  -0.008022  -0.157649
     2  C    0.000163  -0.075425   0.044434  -0.044537   0.005431  -0.085722
     3  C   -0.001151  -0.338844  -0.077651   0.013351   0.015458   0.528543
     4  H    0.000000  -0.008612  -0.000341   0.000216   0.002373  -0.050876
     5  H    0.000000  -0.010565   0.000108  -0.000079   0.000155   0.023288
     6  H   -0.000033   0.001854   0.000057  -0.000018   0.000003  -0.082303
     7  C   -0.001976  -0.028069  -0.001204  -0.003415   0.006524  -0.305735
     8  H   -0.000040   0.000564  -0.000002   0.000020  -0.000064  -0.108110
     9  H    0.000101   0.000794  -0.000001   0.000019   0.000017   0.017716
    10  C   -0.067332  -0.054989  -0.000561   0.000743   0.000981   0.268074
    11  H    0.002651  -0.000090   0.000000   0.000002  -0.000001  -0.019052
    12  H   -0.000689   0.000950   0.000000   0.000000   0.000000   0.031010
    13  C    0.052766  -0.000965   0.000036  -0.000055  -0.000030  -0.089741
    14  H    0.006418  -0.000059   0.000000   0.000000   0.000000  -0.004010
    15  H   -0.008045   0.000112   0.000000   0.000000   0.000000   0.005525
    16  C    0.363650  -0.000647  -0.000004   0.000005   0.000000  -0.041323
    17  H   -0.037148   0.000003   0.000000   0.000000   0.000000  -0.000365
    18  H   -0.024240   0.000000   0.000000   0.000000   0.000000   0.000446
    19  H    0.459485  -0.000005   0.000000   0.000000   0.000000  -0.000017
    20  C   -0.000005   5.842223   0.411947   0.390069   0.375856  -0.180732
    21  H    0.000000   0.411947   0.463242  -0.021949  -0.022523  -0.019006
    22  H    0.000000   0.390069  -0.021949   0.337415  -0.023543   0.010379
    23  H    0.000000   0.375856  -0.022523  -0.023543   0.442020   0.009778
    24  N   -0.000017  -0.180732  -0.019006   0.010379   0.009778   7.167075
    25  N   -0.000015   0.157972  -0.085926  -0.011974  -0.062034  -0.380152
    26  Cl   0.000008   0.029751  -0.002987   0.014778  -0.002754   0.187218
             25         26
     1  C    0.167008  -0.028388
     2  C   -0.077919  -0.519251
     3  C    0.264286   0.245794
     4  H   -0.003587  -0.022967
     5  H   -0.081948  -0.001843
     6  H    0.019159  -0.002631
     7  C    0.060791  -0.182202
     8  H   -0.000453  -0.002807
     9  H    0.007270   0.025245
    10  C   -0.246777   0.140791
    11  H   -0.000418   0.000099
    12  H    0.004460  -0.000092
    13  C    0.000028  -0.024498
    14  H   -0.000204   0.000127
    15  H    0.000363  -0.000268
    16  C   -0.003291   0.000983
    17  H    0.000008  -0.000004
    18  H    0.000003   0.000000
    19  H   -0.000015   0.000008
    20  C    0.157972   0.029751
    21  H   -0.085926  -0.002987
    22  H   -0.011974   0.014778
    23  H   -0.062034  -0.002754
    24  N   -0.380152   0.187218
    25  N    6.918427   0.091938
    26  Cl   0.091938  17.778968
 Mulliken atomic charges:
              1
     1  C    0.052259
     2  C   -0.120391
     3  C   -0.693070
     4  H    0.321041
     5  H    0.274644
     6  H    0.281551
     7  C   -0.653368
     8  H    0.254013
     9  H    0.360299
    10  C   -0.444941
    11  H    0.252051
    12  H    0.268107
    13  C   -0.378791
    14  H    0.257587
    15  H    0.274546
    16  C   -1.027772
    17  H    0.256792
    18  H    0.271892
    19  H    0.259152
    20  C   -0.731485
    21  H    0.241668
    22  H    0.350123
    23  H    0.260376
    24  N    0.275739
    25  N    0.262985
    26  Cl  -0.725009
 Sum of Mulliken atomic charges =   0.00000
 Mulliken charges with hydrogens summed into heavy atoms:
              1
     1  C    0.333810
     2  C    0.200650
     3  C   -0.418427
     7  C   -0.039056
    10  C    0.075217
    13  C    0.153342
    16  C   -0.239935
    20  C    0.120682
    24  N    0.275739
    25  N    0.262985
    26  Cl  -0.725009
 Sum of Mulliken charges with hydrogens summed into heavy atoms =   0.00000
 Electronic spatial extent (au):  <R**2>=           3028.8885
 Charge=              0.0000 electrons
 Dipole moment (field-independent basis, Debye):
    X=             -2.3437    Y=             -8.2381    Z=              2.6335  Tot=              8.9607
 Quadrupole moment (field-independent basis, Debye-Ang):
   XX=            -64.4282   YY=            -91.6500   ZZ=            -73.9865
   XY=            -17.4784   XZ=              4.9456   YZ=              8.1884
 Traceless Quadrupole moment (field-independent basis, Debye-Ang):
   XX=             12.2600   YY=            -14.9618   ZZ=              2.7017
   XY=            -17.4784   XZ=              4.9456   YZ=              8.1884
 Octapole moment (field-independent basis, Debye-Ang**2):
  XXX=             35.3961  YYY=            -46.0957  ZZZ=              8.8919  XYY=            -23.4318
  XXY=            -35.4626  XXZ=             12.4445  XZZ=              2.9208  YZZ=             -7.7508
  YYZ=             -0.2003  XYZ=             11.5865
 Hexadecapole moment (field-independent basis, Debye-Ang**3):
 XXXX=          -2945.8073 YYYY=           -850.7195 ZZZZ=           -248.0938 XXXY=           -129.5469
 XXXZ=             18.1682 YYYX=            -90.8035 YYYZ=             33.1465 ZZZX=             18.1310
 ZZZY=             18.1615 XXYY=           -683.6571 XXZZ=           -559.7245 YYZZ=           -168.6493
 XXYZ=             22.1242 YYXZ=             -0.7310 ZZXY=            -12.8905
 N-N= 7.108688171737D+02 E-N=-3.498056649074D+03  KE= 8.808074040269D+02
 1\1\GINC-N0289\FOpt\RM062X\6-311+G(d)\C8H15Cl1N2\WAB665\08-Mar-2017\0\
 \# opt M062X/6-311+G* geom=connectivity\\Title Card Required\\0,1\C,-1
 .0543757214,0.8424752151,-0.1995531021\C,0.2867809525,2.3779562359,0.6
 187572054\C,-1.4817375484,2.0486921506,-0.6405638547\H,1.0937083176,2.
 8570003674,1.1438744366\H,-2.3222464885,2.3183045773,-1.2568941962\H,-
 1.4496464214,-0.1428895369,-0.3693483681\C,0.7294085493,0.127738819,1.
 4808908087\H,1.7941332204,0.3721308658,1.4980814217\H,0.3104373753,0.3
 53924785,2.4670201126\C,0.5259953445,-1.3259631486,1.0905721049\H,-0.5
 349583049,-1.5865718064,1.1651583395\H,0.8280250057,-1.4829614353,0.04
 85222388\C,1.3264443371,-2.2529055678,2.0042456323\H,2.3916101016,-2.0
 115267222,1.9234386325\H,1.0444657167,-2.0647777692,3.045023298\C,1.10
 37617695,-3.7233308183,1.6655759448\H,1.4013801869,-3.9394891837,0.636
 1821595\H,1.6823144282,-4.3748017233,2.322679785\H,0.0506552119,-3.995
 4331204,1.7717143721\C,-0.8397307175,4.4314827187,-0.1055614137\H,-1.4
 174323296,4.7271047221,-0.97918103\H,-1.3750386243,4.6450190896,0.8218
 63648\H,0.1134587203,4.9570817723,-0.109011976\N,0.0892787272,1.061847
 5547,0.5469648252\N,-0.5976159337,2.9965589877,-0.1628614652\Cl,-0.901
 9877652,2.8306639207,2.9641155203\\Version=EM64L-G09RevA.02\State=1-A\
 HF=-883.4839468\RMSD=4.639e-09\RMSF=1.033e-05\Dipole=0.9613603,-1.1587
 887,-3.1877343\Quadrupole=2.2257959,6.0824488,-8.3082447,1.5181931,8.3
 41209,-14.0536133\PG=C01 [X(C8H15Cl1N2)]\\@


 "MATHEMATICS IS THE ART OF GIVING THE SAME NAME
 TO DIFFERENT THINGS."
                    - H. POINCARE
 Job cpu time:  0 days  8 hours 44 minutes 54.8 seconds.
 File lengths (MBytes):  RWF=    202 Int=      0 D2E=      0 Chk=      8 Scr=      4
 Normal termination of Gaussian 09 at Wed Mar  8 19:41:47 2017.
