 Entering Gaussian System, Link 0=g09
 Input=Ethane_CCSD_6-31Gd.com
 Output=Ethane_CCSD_6-31Gd.log
 Initial command:
 /sw/contrib/gaussian/g09/E01/g09/l1.exe "/scr/Gau-661.inp" -scrdir="/scr/"
 Entering Link 1 = /sw/contrib/gaussian/g09/E01/g09/l1.exe PID=       662.
  
 Copyright (c) 1988,1990,1992,1993,1995,1998,2003,2009,2015,
            Gaussian, Inc.  All Rights Reserved.
  
 This is part of the Gaussian(R) 09 program.  It is based on
 the Gaussian(R) 03 system (copyright 2003, Gaussian, Inc.),
 the Gaussian(R) 98 system (copyright 1998, Gaussian, Inc.),
 the Gaussian(R) 94 system (copyright 1995, Gaussian, Inc.),
 the Gaussian 92(TM) system (copyright 1992, Gaussian, Inc.),
 the Gaussian 90(TM) system (copyright 1990, Gaussian, Inc.),
 the Gaussian 88(TM) system (copyright 1988, Gaussian, Inc.),
 the Gaussian 86(TM) system (copyright 1986, Carnegie Mellon
 University), and the Gaussian 82(TM) system (copyright 1983,
 Carnegie Mellon University). Gaussian is a federally registered
 trademark of Gaussian, Inc.
  
 This software contains proprietary and confidential information,
 including trade secrets, belonging to Gaussian, Inc.
  
 This software is provided under written license and may be
 used, copied, transmitted, or stored only in accord with that
 written license.
  
 The following legend is applicable only to US Government
 contracts under FAR:
  
                    RESTRICTED RIGHTS LEGEND
  
 Use, reproduction and disclosure by the US Government is
 subject to restrictions as set forth in subparagraphs (a)
 and (c) of the Commercial Computer Software - Restricted
 Rights clause in FAR 52.227-19.
  
 Gaussian, Inc.
 340 Quinnipiac St., Bldg. 40, Wallingford CT 06492
  
  
 ---------------------------------------------------------------
 Warning -- This program may not be used in any manner that
 competes with the business of Gaussian, Inc. or will provide
 assistance to any competitor of Gaussian, Inc.  The licensee
 of this program is prohibited from giving any competitor of
 Gaussian, Inc. access to this program.  By using this program,
 the user acknowledges that Gaussian, Inc. is engaged in the
 business of creating and licensing software in the field of
 computational chemistry and represents and warrants to the
 licensee that it is not a competitor of Gaussian, Inc. and that
 it will not use this program in any manner prohibited above.
 ---------------------------------------------------------------
  

 Cite this work as:
 Gaussian 09, Revision E.01,
 M. J. Frisch, G. W. Trucks, H. B. Schlegel, G. E. Scuseria, 
 M. A. Robb, J. R. Cheeseman, G. Scalmani, V. Barone, B. Mennucci, 
 G. A. Petersson, H. Nakatsuji, M. Caricato, X. Li, H. P. Hratchian, 
 A. F. Izmaylov, J. Bloino, G. Zheng, J. L. Sonnenberg, M. Hada, 
 M. Ehara, K. Toyota, R. Fukuda, J. Hasegawa, M. Ishida, T. Nakajima, 
 Y. Honda, O. Kitao, H. Nakai, T. Vreven, J. A. Montgomery, Jr., 
 J. E. Peralta, F. Ogliaro, M. Bearpark, J. J. Heyd, E. Brothers, 
 K. N. Kudin, V. N. Staroverov, T. Keith, R. Kobayashi, J. Normand, 
 K. Raghavachari, A. Rendell, J. C. Burant, S. S. Iyengar, J. Tomasi, 
 M. Cossi, N. Rega, J. M. Millam, M. Klene, J. E. Knox, J. B. Cross, 
 V. Bakken, C. Adamo, J. Jaramillo, R. Gomperts, R. E. Stratmann, 
 O. Yazyev, A. J. Austin, R. Cammi, C. Pomelli, J. W. Ochterski, 
 R. L. Martin, K. Morokuma, V. G. Zakrzewski, G. A. Voth, 
 P. Salvador, J. J. Dannenberg, S. Dapprich, A. D. Daniels, 
 O. Farkas, J. B. Foresman, J. V. Ortiz, J. Cioslowski, 
 and D. J. Fox, Gaussian, Inc., Wallingford CT, 2013.
 
 ******************************************
 Gaussian 09:  ES64L-G09RevE.01 30-Nov-2015
                21-Feb-2017 
 ******************************************
 %NProcShared=8
 Will use up to    8 processors via shared memory.
 --------------------
 #n CCSD/6-31G(d) Opt
 --------------------
 1/18=20,19=15,38=1/1,3;
 2/9=110,12=2,17=6,18=5,40=1/2;
 3/5=1,6=6,7=1,11=9,16=1,25=1,30=1,71=1/1,2,3;
 4//1;
 5/5=2,38=5/2;
 8/6=4,9=120000,10=2/1,4;
 9/5=7,15=1/13;
 11/28=-8,29=200,42=3/11;
 10/5=6/2;
 6/7=2,8=2,9=2,10=2/1;
 7/12=7/1,2,3,16;
 1/18=20,19=15/3(2);
 2/9=110/2;
 99//99;
 2/9=110/2;
 3/5=1,6=6,7=1,11=9,16=1,25=1,30=1,71=1/1,2,3;
 4/5=5,16=3,69=1/1;
 5/5=2,38=5/2;
 8/6=4,9=120000,10=2/1,4;
 9/5=7,15=1/13;
 11/28=-8,29=200,42=3/11;
 10/5=6/2;
 7/12=7/1,2,3,16;
 1/18=20,19=15/3(-9);
 2/9=110/2;
 6/7=2,8=2,9=2,10=2/1;
 99//99;
 ------------------
 Ethane CCSD 6-31Gd
 ------------------
 Symbolic Z-matrix:
 Charge =  0 Multiplicity = 1
 C                    -6.3877    0.65101   0. 
 C                    -4.85301   0.57162   0. 
 H                    -6.75069   1.00542   0.96733 
 H                    -6.81994  -0.3333   -0.19339 
 H                    -6.73338   1.33993  -0.77394 
 H                    -4.50733  -0.1173    0.77394 
 H                    -4.42077   1.55593   0.19339 
 H                    -4.49002   0.21721  -0.96733 
 

 GradGradGradGradGradGradGradGradGradGradGradGradGradGradGradGradGradGrad
 Berny optimization.
 Initialization pass.
                           ----------------------------
                           !    Initial Parameters    !
                           ! (Angstroms and Degrees)  !
 --------------------------                            --------------------------
 ! Name  Definition              Value          Derivative Info.                !
 --------------------------------------------------------------------------------
 ! R1    R(1,2)                  1.5367         estimate D2E/DX2                !
 ! R2    R(1,3)                  1.0923         estimate D2E/DX2                !
 ! R3    R(1,4)                  1.0923         estimate D2E/DX2                !
 ! R4    R(1,5)                  1.0923         estimate D2E/DX2                !
 ! R5    R(2,6)                  1.0923         estimate D2E/DX2                !
 ! R6    R(2,7)                  1.0923         estimate D2E/DX2                !
 ! R7    R(2,8)                  1.0923         estimate D2E/DX2                !
 ! A1    A(2,1,3)              110.4041         estimate D2E/DX2                !
 ! A2    A(2,1,4)              110.4039         estimate D2E/DX2                !
 ! A3    A(2,1,5)              110.4038         estimate D2E/DX2                !
 ! A4    A(3,1,4)              108.5227         estimate D2E/DX2                !
 ! A5    A(3,1,5)              108.5224         estimate D2E/DX2                !
 ! A6    A(4,1,5)              108.5227         estimate D2E/DX2                !
 ! A7    A(1,2,6)              110.4038         estimate D2E/DX2                !
 ! A8    A(1,2,7)              110.4039         estimate D2E/DX2                !
 ! A9    A(1,2,8)              110.4041         estimate D2E/DX2                !
 ! A10   A(6,2,7)              108.5227         estimate D2E/DX2                !
 ! A11   A(6,2,8)              108.5224         estimate D2E/DX2                !
 ! A12   A(7,2,8)              108.5227         estimate D2E/DX2                !
 ! D1    D(3,1,2,6)             60.0002         estimate D2E/DX2                !
 ! D2    D(3,1,2,7)            -59.9998         estimate D2E/DX2                !
 ! D3    D(3,1,2,8)            180.0            estimate D2E/DX2                !
 ! D4    D(4,1,2,6)            -60.0            estimate D2E/DX2                !
 ! D5    D(4,1,2,7)            180.0            estimate D2E/DX2                !
 ! D6    D(4,1,2,8)             59.9998         estimate D2E/DX2                !
 ! D7    D(5,1,2,6)            180.0            estimate D2E/DX2                !
 ! D8    D(5,1,2,7)             60.0            estimate D2E/DX2                !
 ! D9    D(5,1,2,8)            -60.0002         estimate D2E/DX2                !
 --------------------------------------------------------------------------------
 Trust Radius=3.00D-01 FncErr=1.00D-07 GrdErr=1.00D-07
 Number of steps in this run=     38 maximum allowed number of steps=    100.
 GradGradGradGradGradGradGradGradGradGradGradGradGradGradGradGradGradGrad

                          Input orientation:                          
 ---------------------------------------------------------------------
 Center     Atomic      Atomic             Coordinates (Angstroms)
 Number     Number       Type             X           Y           Z
 ---------------------------------------------------------------------
      1          6           0       -6.387700    0.651010    0.000000
      2          6           0       -4.853010    0.571620    0.000000
      3          1           0       -6.750690    1.005420    0.967330
      4          1           0       -6.819940   -0.333300   -0.193390
      5          1           0       -6.733380    1.339930   -0.773940
      6          1           0       -4.507330   -0.117300    0.773940
      7          1           0       -4.420770    1.555930    0.193390
      8          1           0       -4.490020    0.217210   -0.967330
 ---------------------------------------------------------------------
                    Distance matrix (angstroms):
                    1          2          3          4          5
     1  C    0.000000
     2  C    1.536742   0.000000
     3  H    1.092289   2.173729   0.000000
     4  H    1.092290   2.173728   1.773200   0.000000
     5  H    1.092286   2.173724   1.773194   1.773198   0.000000
     6  H    2.173724   1.092286   2.516061   2.516058   3.078108
     7  H    2.173728   1.092290   2.516063   3.078117   2.516058
     8  H    2.173729   1.092289   3.078118   2.516063   2.516061
                    6          7          8
     6  H    0.000000
     7  H    1.773198   0.000000
     8  H    1.773194   1.773200   0.000000
 This structure is nearly, but not quite of a higher symmetry.
 Consider Symm=Loose if the higher symmetry is desired.
 Stoichiometry    C2H6
 Framework group  CI[X(C2H6)]
 Deg. of freedom     9
 Full point group                 CI      NOp   2
 Largest Abelian subgroup         CI      NOp   2
 Largest concise Abelian subgroup CI      NOp   2
                         Standard orientation:                         
 ---------------------------------------------------------------------
 Center     Atomic      Atomic             Coordinates (Angstroms)
 Number     Number       Type             X           Y           Z
 ---------------------------------------------------------------------
      1          6           0       -0.767345    0.039695    0.000000
      2          6           0        0.767345   -0.039695    0.000000
      3          1           0       -1.130335    0.394105    0.967330
      4          1           0       -1.199585   -0.944615   -0.193390
      5          1           0       -1.113025    0.728615   -0.773940
      6          1           0        1.113025   -0.728615    0.773940
      7          1           0        1.199585    0.944615    0.193390
      8          1           0        1.130335   -0.394105   -0.967330
 ---------------------------------------------------------------------
 Rotational constants (GHZ):     79.7421566     19.9565168     19.9564985
 Standard basis: 6-31G(d) (6D, 7F)
 There are    21 symmetry adapted cartesian basis functions of AG  symmetry.
 There are    21 symmetry adapted cartesian basis functions of AU  symmetry.
 There are    21 symmetry adapted basis functions of AG  symmetry.
 There are    21 symmetry adapted basis functions of AU  symmetry.
    42 basis functions,    80 primitive gaussians,    42 cartesian basis functions
     9 alpha electrons        9 beta electrons
       nuclear repulsion energy        42.1695770054 Hartrees.
 NAtoms=    8 NActive=    8 NUniq=    4 SFac= 4.00D+00 NAtFMM=   60 NAOKFM=F Big=F
 Integral buffers will be    131072 words long.
 Raffenetti 1 integral format.
 Two-electron integral symmetry is turned on.
 One-electron integrals computed using PRISM.
 NBasis=    42 RedAO= T EigKep=  5.92D-03  NBF=    21    21
 NBsUse=    42 1.00D-06 EigRej= -1.00D+00 NBFU=    21    21
 ExpMin= 1.61D-01 ExpMax= 3.05D+03 ExpMxC= 4.57D+02 IAcc=1 IRadAn=         1 AccDes= 0.00D+00
 Harris functional with IExCor=  205 and IRadAn=       1 diagonalized for initial guess.
 HarFok:  IExCor=  205 AccDes= 0.00D+00 IRadAn=         1 IDoV= 1 UseB2=F ITyADJ=14
 ICtDFT=  3500011 ScaDFX=  1.000000  1.000000  1.000000  1.000000
 FoFCou: FMM=F IPFlag=           0 FMFlag=      100000 FMFlg1=           0
         NFxFlg=           0 DoJE=T BraDBF=F KetDBF=T FulRan=T
         wScrn=  0.000000 ICntrl=     500 IOpCl=  0 I1Cent=   200000004 NGrid=           0
         NMat0=    1 NMatS0=      1 NMatT0=    0 NMatD0=    1 NMtDS0=    0 NMtDT0=    0
 Petite list used in FoFCou.
 Initial guess orbital symmetries:
       Occupied  (AG) (AU) (AG) (AU) (AU) (AU) (AG) (AG) (AG)
       Virtual   (AG) (AU) (AU) (AU) (AG) (AG) (AU) (AG) (AU) (AU)
                 (AG) (AG) (AU) (AU) (AU) (AG) (AG) (AG) (AU) (AG)
                 (AU) (AU) (AU) (AG) (AG) (AG) (AU) (AU) (AG) (AG)
                 (AU) (AG) (AU)
 The electronic state of the initial guess is 1-AG.
 Keep R1 ints in memory in symmetry-blocked form, NReq=1274617.
 Requested convergence on RMS density matrix=1.00D-08 within 128 cycles.
 Requested convergence on MAX density matrix=1.00D-06.
 Requested convergence on             energy=1.00D-06.
 No special actions if energy rises.
 SCF Done:  E(RHF) =  -79.2283419657     A.U. after    9 cycles
            NFock=  9  Conv=0.37D-08     -V/T= 2.0012
 ExpMin= 1.61D-01 ExpMax= 3.05D+03 ExpMxC= 4.57D+02 IAcc=3 IRadAn=         5 AccDes= 0.00D+00
 HarFok:  IExCor=  205 AccDes= 0.00D+00 IRadAn=         5 IDoV=-2 UseB2=F ITyADJ=14
 ICtDFT= 12500011 ScaDFX=  1.000000  1.000000  1.000000  1.000000
 Range of M.O.s used for correlation:     3    42
 NBasis=    42 NAE=     9 NBE=     9 NFC=     2 NFV=     0
 NROrb=     40 NOA=     7 NOB=     7 NVA=    33 NVB=    33
 Semi-Direct transformation.
 ModeAB=           4 MOrb=             7 LenV=      33361378
 LASXX=        95791 LTotXX=       95791 LenRXX=      198779
 LTotAB=      102988 MaxLAS=      144480 LenRXY=           0
 NonZer=      294570 LenScr=      883712 LnRSAI=      144480
 LnScr1=      785920 LExtra=           0 Total=      2012891
 MaxDsk=          -1 SrtSym=           T ITran=            4
 JobTyp=0 Pass  1:  I=   1 to   7.
 (rs|ai) integrals will be sorted in core.
 Spin components of T(2) and E(2):
     alpha-alpha T2 =       0.9621041472D-02 E2=     -0.2874467070D-01
     alpha-beta  T2 =       0.6937523659D-01 E2=     -0.2087271178D+00
     beta-beta   T2 =       0.9621041472D-02 E2=     -0.2874467070D-01
 ANorm=    0.1043368257D+01
 E2 =    -0.2662164592D+00 EUMP2 =    -0.79494558424911D+02
 Keep R2 and R3 ints in memory in symmetry-blocked form, NReq=1232230.
 Iterations=  50 Convergence= 0.100D-07
 Iteration Nr.   1
 **********************
 DD1Dir will call FoFMem   1 times, MxPair=        56
 NAB=    28 NAA=     0 NBB=     0.
 MP4(R+Q)=  0.36856254D-02
 E3=       -0.26169505D-01        EUMP3=      -0.79520727930D+02
 E4(DQ)=   -0.36859137D-02        UMP4(DQ)=   -0.79524413844D+02
 E4(SDQ)=  -0.55464522D-02        UMP4(SDQ)=  -0.79526274382D+02
 DE(Corr)= -0.28851895     E(Corr)=     -79.516860915    
 NORM(A)=   0.10532040D+01
 Iteration Nr.   2
 **********************
 DD1Dir will call FoFMem   1 times, MxPair=        56
 NAB=    28 NAA=     0 NBB=     0.
 DE(Corr)= -0.29654225     E(CORR)=     -79.524884219     Delta=-8.02D-03
 NORM(A)=   0.10569351D+01
 Iteration Nr.   3
 **********************
 DD1Dir will call FoFMem   1 times, MxPair=        56
 NAB=    28 NAA=     0 NBB=     0.
 DE(Corr)= -0.29844681     E(CORR)=     -79.526788779     Delta=-1.90D-03
 NORM(A)=   0.10575303D+01
 Iteration Nr.   4
 **********************
 DD1Dir will call FoFMem   1 times, MxPair=        56
 NAB=    28 NAA=     0 NBB=     0.
 DE(Corr)= -0.29889877     E(CORR)=     -79.527240741     Delta=-4.52D-04
 NORM(A)=   0.10576108D+01
 Iteration Nr.   5
 **********************
 DD1Dir will call FoFMem   1 times, MxPair=        56
 NAB=    28 NAA=     0 NBB=     0.
 DE(Corr)= -0.29893095     E(CORR)=     -79.527272917     Delta=-3.22D-05
 NORM(A)=   0.10576124D+01
 Iteration Nr.   6
 **********************
 DD1Dir will call FoFMem   1 times, MxPair=        56
 NAB=    28 NAA=     0 NBB=     0.
 DE(Corr)= -0.29893183     E(CORR)=     -79.527273798     Delta=-8.81D-07
 NORM(A)=   0.10576116D+01
 Iteration Nr.   7
 **********************
 DD1Dir will call FoFMem   1 times, MxPair=        56
 NAB=    28 NAA=     0 NBB=     0.
 DE(Corr)= -0.29893162     E(CORR)=     -79.527273586     Delta= 2.12D-07
 NORM(A)=   0.10576118D+01
 Iteration Nr.   8
 **********************
 DD1Dir will call FoFMem   1 times, MxPair=        56
 NAB=    28 NAA=     0 NBB=     0.
 DE(Corr)= -0.29893166     E(CORR)=     -79.527273624     Delta=-3.79D-08
 NORM(A)=   0.10576118D+01
 Iteration Nr.   9
 **********************
 DD1Dir will call FoFMem   1 times, MxPair=        56
 NAB=    28 NAA=     0 NBB=     0.
 DE(Corr)= -0.29893170     E(CORR)=     -79.527273663     Delta=-3.87D-08
 NORM(A)=   0.10576118D+01
 Iteration Nr.  10
 **********************
 DD1Dir will call FoFMem   1 times, MxPair=        56
 NAB=    28 NAA=     0 NBB=     0.
 DE(Corr)= -0.29893170     E(CORR)=     -79.527273671     Delta=-8.14D-09
 NORM(A)=   0.10576118D+01
 Iteration Nr.  11
 **********************
 DD1Dir will call FoFMem   1 times, MxPair=        56
 NAB=    28 NAA=     0 NBB=     0.
 DE(Corr)= -0.29893171     E(CORR)=     -79.527273675     Delta=-4.29D-09
 NORM(A)=   0.10576118D+01
 Largest amplitude= 4.01D-02

 Z-AMPLITUDE ITERATIONS

 Iteration Nr.   1
 **********************
 DD1Dir will call FoFMem   1 times, MxPair=        56
 NAB=    28 NAA=     0 NBB=     0.
 DE(Z)  -0.29353853D+00          E(Z)=    -0.79521880496D+02
 NORM(A)=   0.10576119D+01
 Iteration Nr.   2
 **********************
 DD1Dir will call FoFMem   1 times, MxPair=        56
 NAB=    28 NAA=     0 NBB=     0.
 DE(Z)  -0.29353858D+00          E(Z)=    -0.79521880545D+02
 NORM(A)=   0.10576117D+01
 Iteration Nr.   3
 **********************
 DD1Dir will call FoFMem   1 times, MxPair=        56
 NAB=    28 NAA=     0 NBB=     0.
 DE(Z)  -0.29353845D+00          E(Z)=    -0.79521880413D+02
 NORM(A)=   0.10576119D+01
 Iteration Nr.   4
 **********************
 DD1Dir will call FoFMem   1 times, MxPair=        56
 NAB=    28 NAA=     0 NBB=     0.
 DE(Z)  -0.29353855D+00          E(Z)=    -0.79521880513D+02
 NORM(A)=   0.10576118D+01
 Iteration Nr.   5
 **********************
 DD1Dir will call FoFMem   1 times, MxPair=        56
 NAB=    28 NAA=     0 NBB=     0.
 DE(Z)  -0.29353853D+00          E(Z)=    -0.79521880493D+02
 NORM(A)=   0.10545684D+01
 Iteration Nr.   6
 **********************
 DD1Dir will call FoFMem   1 times, MxPair=        56
 NAB=    28 NAA=     0 NBB=     0.
 DE(Z)  -0.29215456D+00          E(Z)=    -0.79520496521D+02
 NORM(A)=   0.10547512D+01
 Iteration Nr.   7
 **********************
 DD1Dir will call FoFMem   1 times, MxPair=        56
 NAB=    28 NAA=     0 NBB=     0.
 DE(Z)  -0.29217442D+00          E(Z)=    -0.79520516389D+02
 NORM(A)=   0.10547614D+01
 Iteration Nr.   8
 **********************
 DD1Dir will call FoFMem   1 times, MxPair=        56
 NAB=    28 NAA=     0 NBB=     0.
 DE(Z)  -0.29216262D+00          E(Z)=    -0.79520504590D+02
 NORM(A)=   0.10547596D+01
 Iteration Nr.   9
 **********************
 DD1Dir will call FoFMem   1 times, MxPair=        56
 NAB=    28 NAA=     0 NBB=     0.
 DE(Z)  -0.29216201D+00          E(Z)=    -0.79520503973D+02
 NORM(A)=   0.10547589D+01
 Iteration Nr.  10
 **********************
 DD1Dir will call FoFMem   1 times, MxPair=        56
 NAB=    28 NAA=     0 NBB=     0.
 DE(Z)  -0.29216154D+00          E(Z)=    -0.79520503502D+02
 NORM(A)=   0.10547588D+01
 Iteration Nr.  11
 **********************
 DD1Dir will call FoFMem   1 times, MxPair=        56
 NAB=    28 NAA=     0 NBB=     0.
 DE(Z)  -0.29216146D+00          E(Z)=    -0.79520503421D+02
 NORM(A)=   0.10547587D+01
 Iteration Nr.  12
 **********************
 DD1Dir will call FoFMem   1 times, MxPair=        56
 NAB=    28 NAA=     0 NBB=     0.
 DE(Z)  -0.29216145D+00          E(Z)=    -0.79520503411D+02
 NORM(A)=   0.10547587D+01
 Iteration Nr.  13
 **********************
 DD1Dir will call FoFMem   1 times, MxPair=        56
 NAB=    28 NAA=     0 NBB=     0.
 DE(Z)  -0.29216144D+00          E(Z)=    -0.79520503410D+02
 NORM(A)=   0.10547587D+01
 Discarding MO integrals.
          IDoAtm=11111111
          Differentiating once with respect to electric field.
                with respect to dipole field.
          Differentiating once with respect to nuclear coordinates.
 Keep R1 ints in memory in symmetry-blocked form, NReq=1259085.
          There are     1 degrees of freedom in the 1st order CPHF.  IDoFFX=0 NUNeed=     1.
 LinEq1:  Iter=  0 NonCon=     1 RMS=4.64D-03 Max=2.43D-02 NDo=     1
 AX will form     1 AO Fock derivatives at one time.
 LinEq1:  Iter=  1 NonCon=     1 RMS=1.56D-03 Max=1.28D-02 NDo=     1
 LinEq1:  Iter=  2 NonCon=     1 RMS=1.81D-04 Max=1.31D-03 NDo=     1
 LinEq1:  Iter=  3 NonCon=     1 RMS=2.81D-05 Max=2.20D-04 NDo=     1
 LinEq1:  Iter=  4 NonCon=     1 RMS=2.20D-06 Max=1.18D-05 NDo=     1
 LinEq1:  Iter=  5 NonCon=     1 RMS=1.71D-07 Max=1.13D-06 NDo=     1
 LinEq1:  Iter=  6 NonCon=     1 RMS=1.13D-08 Max=6.90D-08 NDo=     1
 LinEq1:  Iter=  7 NonCon=     1 RMS=8.78D-10 Max=7.96D-09 NDo=     1
 LinEq1:  Iter=  8 NonCon=     0 RMS=6.92D-11 Max=4.20D-10 NDo=     1
 Linear equations converged to 1.000D-10 1.000D-09 after     8 iterations.
 End of Minotr F.D. properties file   721 does not exist.
 End of Minotr F.D. properties file   722 does not exist.
 End of Minotr F.D. properties file   788 does not exist.

 **********************************************************************

            Population analysis using the SCF density.

 **********************************************************************

 Orbital symmetries:
       Occupied  (AG) (AU) (AG) (AU) (AU) (AU) (AG) (AG) (AG)
       Virtual   (AG) (AU) (AU) (AU) (AG) (AG) (AU) (AG) (AU) (AU)
                 (AG) (AG) (AU) (AU) (AU) (AG) (AG) (AG) (AU) (AG)
                 (AU) (AU) (AU) (AG) (AG) (AG) (AU) (AU) (AG) (AG)
                 (AU) (AG) (AU)
 The electronic state is 1-AG.
 Alpha  occ. eigenvalues --  -11.21317 -11.21260  -1.01579  -0.83920  -0.59735
 Alpha  occ. eigenvalues --   -0.59735  -0.50250  -0.48803  -0.48803
 Alpha virt. eigenvalues --    0.24084   0.30279   0.31705   0.31705   0.33618
 Alpha virt. eigenvalues --    0.33618   0.40740   0.70886   0.74301   0.74302
 Alpha virt. eigenvalues --    0.84555   0.84555   0.93653   1.15657   1.15657
 Alpha virt. eigenvalues --    1.19512   1.20381   1.20381   1.25507   1.27741
 Alpha virt. eigenvalues --    1.68507   1.79942   1.79942   2.24899   2.30351
 Alpha virt. eigenvalues --    2.30351   2.61566   2.61567   2.65615   2.65615
 Alpha virt. eigenvalues --    2.93622   4.57370   4.79426
          Condensed to atoms (all electrons):
               1          2          3          4          5          6
     1  C    5.079043   0.327322   0.393884   0.393884   0.393885  -0.038326
     2  C    0.327322   5.079043  -0.038326  -0.038326  -0.038326   0.393885
     3  H    0.393884  -0.038326   0.545337  -0.028445  -0.028446  -0.002838
     4  H    0.393884  -0.038326  -0.028445   0.545337  -0.028445  -0.002838
     5  H    0.393885  -0.038326  -0.028446  -0.028445   0.545336   0.003991
     6  H   -0.038326   0.393885  -0.002838  -0.002838   0.003991   0.545336
     7  H   -0.038326   0.393884  -0.002838   0.003991  -0.002838  -0.028445
     8  H   -0.038326   0.393884   0.003991  -0.002838  -0.002838  -0.028446
               7          8
     1  C   -0.038326  -0.038326
     2  C    0.393884   0.393884
     3  H   -0.002838   0.003991
     4  H    0.003991  -0.002838
     5  H   -0.002838  -0.002838
     6  H   -0.028445  -0.028446
     7  H    0.545337  -0.028445
     8  H   -0.028445   0.545337
 Mulliken charges:
               1
     1  C   -0.473041
     2  C   -0.473041
     3  H    0.157680
     4  H    0.157680
     5  H    0.157681
     6  H    0.157681
     7  H    0.157680
     8  H    0.157680
 Sum of Mulliken charges =   0.00000
 Mulliken charges with hydrogens summed into heavy atoms:
               1
     1  C    0.000000
     2  C    0.000000
 Electronic spatial extent (au):  <R**2>=            109.9086
 Charge=              0.0000 electrons
 Dipole moment (field-independent basis, Debye):
    X=              0.0000    Y=              0.0000    Z=              0.0000  Tot=              0.0000
 Quadrupole moment (field-independent basis, Debye-Ang):
   XX=            -15.7219   YY=            -14.9088   ZZ=            -14.9067
   XY=              0.0422   XZ=              0.0000   YZ=              0.0000
 Traceless Quadrupole moment (field-independent basis, Debye-Ang):
   XX=             -0.5427   YY=              0.2703   ZZ=              0.2725
   XY=              0.0422   XZ=              0.0000   YZ=              0.0000
 Octapole moment (field-independent basis, Debye-Ang**2):
  XXX=              0.0000  YYY=              0.0000  ZZZ=              0.0000  XYY=              0.0000
  XXY=              0.0000  XXZ=              0.0000  XZZ=              0.0000  YZZ=              0.0000
  YYZ=              0.0000  XYZ=              0.0000
 Hexadecapole moment (field-independent basis, Debye-Ang**3):
 XXXX=            -93.8579 YYYY=            -29.3034 ZZZZ=            -28.9265 XXXY=              1.8486
 XXXZ=              0.0055 YYYX=              2.5727 YYYZ=             -0.1058 ZZZX=             -0.6834
 ZZZY=              0.0353 XXYY=            -19.3623 XXZZ=            -19.5391 YYZZ=             -9.5582
 XXYZ=              0.0704 YYXZ=              0.6779 ZZXY=             -0.5553
 N-N= 4.216957700541D+01 E-N=-2.680191911320D+02  KE= 7.913138402513D+01
 Symmetry AG   KE= 4.105139121907D+01
 Symmetry AU   KE= 3.807999280606D+01
 Calling FoFJK, ICntrl=  10002127 FMM=F ISym2X=1 I1Cent= 0 IOpClX= 0 NMat=1 NMatS=1 NMatT=0.
 ***** Axes restored to original set *****
 -------------------------------------------------------------------
 Center     Atomic                   Forces (Hartrees/Bohr)
 Number     Number              X              Y              Z
 -------------------------------------------------------------------
      1        6           0.009144146   -0.000474321    0.000000766
      2        6          -0.009144146    0.000474321   -0.000000766
      3        1          -0.002594584    0.000730878    0.001720501
      4        1          -0.002717869   -0.001649134   -0.000343798
      5        1          -0.002564949    0.001327184   -0.001378067
      6        1           0.002564949   -0.001327184    0.001378067
      7        1           0.002717869    0.001649134    0.000343798
      8        1           0.002594584   -0.000730878   -0.001720501
 -------------------------------------------------------------------
 Cartesian Forces:  Max     0.009144146 RMS     0.003089372

 GradGradGradGradGradGradGradGradGradGradGradGradGradGradGradGradGradGrad
 Berny optimization.
 FormGI is forming the generalized inverse of G from B-inverse, IUseBI=4.
 Internal  Forces:  Max     0.002625243 RMS     0.001734770
 Search for a local minimum.
 Step number   1 out of a maximum of   38
 All quantities printed in internal units (Hartrees-Bohrs-Radians)
 Mixed Optimization -- RFO/linear search
 Second derivative matrix not updated -- first step.
 ITU=  0
     Eigenvalues ---    0.00280   0.05575   0.05575   0.05575   0.05575
     Eigenvalues ---    0.16000   0.16000   0.16000   0.16000   0.16000
     Eigenvalues ---    0.16000   0.28809   0.34549   0.34549   0.34549
     Eigenvalues ---    0.34549   0.34550   0.34550
 RFO step:  Lambda=-3.82835889D-04 EMin= 2.79920382D-03
 Linear search not attempted -- first point.
 Iteration  1 RMS(Cart)=  0.01037780 RMS(Int)=  0.00006433
 Iteration  2 RMS(Cart)=  0.00005243 RMS(Int)=  0.00004157
 Iteration  3 RMS(Cart)=  0.00000000 RMS(Int)=  0.00004157
 ClnCor:  largest displacement from symmetrization is 1.12D-08 for atom     8.
 Variable       Old X    -DE/DX   Delta X   Delta X   Delta X     New X
                                 (Linear)    (Quad)   (Total)
    R1        2.90402  -0.00127   0.00000  -0.00440  -0.00440   2.89962
    R2        2.06413   0.00262   0.00000   0.00758   0.00758   2.07171
    R3        2.06413   0.00262   0.00000   0.00758   0.00758   2.07171
    R4        2.06412   0.00263   0.00000   0.00759   0.00759   2.07171
    R5        2.06412   0.00263   0.00000   0.00759   0.00759   2.07171
    R6        2.06413   0.00262   0.00000   0.00758   0.00758   2.07171
    R7        2.06413   0.00262   0.00000   0.00758   0.00758   2.07171
    A1        1.92691   0.00182   0.00000   0.01138   0.01131   1.93823
    A2        1.92691   0.00183   0.00000   0.01138   0.01132   1.93823
    A3        1.92691   0.00183   0.00000   0.01138   0.01132   1.93823
    A4        1.89408  -0.00189   0.00000  -0.01177  -0.01183   1.88225
    A5        1.89407  -0.00189   0.00000  -0.01176  -0.01183   1.88225
    A6        1.89408  -0.00189   0.00000  -0.01177  -0.01183   1.88225
    A7        1.92691   0.00183   0.00000   0.01138   0.01132   1.93823
    A8        1.92691   0.00183   0.00000   0.01138   0.01132   1.93823
    A9        1.92691   0.00182   0.00000   0.01138   0.01131   1.93823
   A10        1.89408  -0.00189   0.00000  -0.01177  -0.01183   1.88225
   A11        1.89407  -0.00189   0.00000  -0.01176  -0.01183   1.88225
   A12        1.89408  -0.00189   0.00000  -0.01177  -0.01183   1.88225
    D1        1.04720   0.00000   0.00000   0.00000   0.00000   1.04720
    D2       -1.04719   0.00000   0.00000   0.00000   0.00000  -1.04720
    D3        3.14159   0.00000   0.00000   0.00000   0.00000   3.14159
    D4       -1.04720   0.00000   0.00000   0.00000   0.00000  -1.04720
    D5        3.14159   0.00000   0.00000   0.00000   0.00000   3.14159
    D6        1.04719   0.00000   0.00000   0.00000   0.00000   1.04720
    D7        3.14159   0.00000   0.00000   0.00000   0.00000   3.14159
    D8        1.04720   0.00000   0.00000   0.00000   0.00000   1.04720
    D9       -1.04720   0.00000   0.00000   0.00000   0.00000  -1.04720
         Item               Value     Threshold  Converged?
 Maximum Force            0.002625     0.000450     NO 
 RMS     Force            0.001735     0.000300     NO 
 Maximum Displacement     0.022386     0.001800     NO 
 RMS     Displacement     0.010387     0.001200     NO 
 Predicted change in Energy=-1.917923D-04
 GradGradGradGradGradGradGradGradGradGradGradGradGradGradGradGradGradGrad

                          Input orientation:                          
 ---------------------------------------------------------------------
 Center     Atomic      Atomic             Coordinates (Angstroms)
 Number     Number       Type             X           Y           Z
 ---------------------------------------------------------------------
      1          6           0       -6.386538    0.650950   -0.000001
      2          6           0       -4.854172    0.571680    0.000001
      3          1           0       -6.762521    1.005824    0.966736
      4          1           0       -6.831730   -0.332070   -0.193271
      5          1           0       -6.745226    1.340132   -0.773468
      6          1           0       -4.495484   -0.117502    0.773468
      7          1           0       -4.408980    1.554700    0.193271
      8          1           0       -4.478189    0.216806   -0.966736
 ---------------------------------------------------------------------
                    Distance matrix (angstroms):
                    1          2          3          4          5
     1  C    0.000000
     2  C    1.534415   0.000000
     3  H    1.096302   2.182854   0.000000
     4  H    1.096302   2.182855   1.772108   0.000000
     5  H    1.096302   2.182856   1.772109   1.772109   0.000000
     6  H    2.182856   1.096302   2.537454   2.537454   3.095003
     7  H    2.182855   1.096302   2.537453   3.095002   2.537454
     8  H    2.182854   1.096302   3.095001   2.537453   2.537454
                    6          7          8
     6  H    0.000000
     7  H    1.772109   0.000000
     8  H    1.772109   1.772108   0.000000
 Stoichiometry    C2H6
 Framework group  CI[X(C2H6)]
 Deg. of freedom     9
 Full point group                 CI      NOp   2
 Largest Abelian subgroup         CI      NOp   2
 Largest concise Abelian subgroup CI      NOp   2
                         Standard orientation:                         
 ---------------------------------------------------------------------
 Center     Atomic      Atomic             Coordinates (Angstroms)
 Number     Number       Type             X           Y           Z
 ---------------------------------------------------------------------
      1          6           0       -0.766183    0.039635   -0.000001
      2          6           0        0.766183   -0.039635    0.000001
      3          1           0       -1.142166    0.394509    0.966736
      4          1           0       -1.211375   -0.943385   -0.193271
      5          1           0       -1.124871    0.728817   -0.773468
      6          1           0        1.124871   -0.728817    0.773468
      7          1           0        1.211375    0.943385    0.193271
      8          1           0        1.142166   -0.394509   -0.966736
 ---------------------------------------------------------------------
 Rotational constants (GHZ):     79.8401543     19.8634730     19.8634712
 Standard basis: 6-31G(d) (6D, 7F)
 There are    21 symmetry adapted cartesian basis functions of AG  symmetry.
 There are    21 symmetry adapted cartesian basis functions of AU  symmetry.
 There are    21 symmetry adapted basis functions of AG  symmetry.
 There are    21 symmetry adapted basis functions of AU  symmetry.
    42 basis functions,    80 primitive gaussians,    42 cartesian basis functions
     9 alpha electrons        9 beta electrons
       nuclear repulsion energy        42.0755168880 Hartrees.
 NAtoms=    8 NActive=    8 NUniq=    4 SFac= 4.00D+00 NAtFMM=   60 NAOKFM=F Big=F
 Integral buffers will be    131072 words long.
 Raffenetti 1 integral format.
 Two-electron integral symmetry is turned on.
 One-electron integrals computed using PRISM.
 NBasis=    42 RedAO= T EigKep=  6.01D-03  NBF=    21    21
 NBsUse=    42 1.00D-06 EigRej= -1.00D+00 NBFU=    21    21
 Initial guess from the checkpoint file:  "/scr/Gau-662.chk"
 B after Tr=     0.000000    0.000000    0.000000
         Rot=    1.000000    0.000000    0.000000    0.000000 Ang=   0.00 deg.
 Initial guess orbital symmetries:
       Occupied  (AG) (AU) (AG) (AU) (AU) (AU) (AG) (AG) (AG)
       Virtual   (AG) (AG) (AG) (AG) (AG) (AG) (AG) (AG) (AG) (AG)
                 (AG) (AG) (AG) (AG) (AG) (AG) (AU) (AU) (AU) (AU)
                 (AU) (AU) (AU) (AU) (AU) (AU) (AU) (AU) (AU) (AU)
                 (AU) (AU) (AU)
 ExpMin= 1.61D-01 ExpMax= 3.05D+03 ExpMxC= 4.57D+02 IAcc=1 IRadAn=         1 AccDes= 0.00D+00
 Harris functional with IExCor=  205 and IRadAn=       1 diagonalized for initial guess.
 HarFok:  IExCor=  205 AccDes= 0.00D+00 IRadAn=         1 IDoV= 1 UseB2=F ITyADJ=14
 ICtDFT=  3500011 ScaDFX=  1.000000  1.000000  1.000000  1.000000
 FoFCou: FMM=F IPFlag=           0 FMFlag=      100000 FMFlg1=           0
         NFxFlg=           0 DoJE=T BraDBF=F KetDBF=T FulRan=T
         wScrn=  0.000000 ICntrl=     500 IOpCl=  0 I1Cent=   200000004 NGrid=           0
         NMat0=    1 NMatS0=      1 NMatT0=    0 NMatD0=    1 NMtDS0=    0 NMtDT0=    0
 Petite list used in FoFCou.
 Keep R1 ints in memory in symmetry-blocked form, NReq=1274617.
 Requested convergence on RMS density matrix=1.00D-08 within 128 cycles.
 Requested convergence on MAX density matrix=1.00D-06.
 Requested convergence on             energy=1.00D-06.
 No special actions if energy rises.
 SCF Done:  E(RHF) =  -79.2282524755     A.U. after    8 cycles
            NFock=  8  Conv=0.14D-08     -V/T= 2.0016
 ExpMin= 1.61D-01 ExpMax= 3.05D+03 ExpMxC= 4.57D+02 IAcc=3 IRadAn=         5 AccDes= 0.00D+00
 HarFok:  IExCor=  205 AccDes= 0.00D+00 IRadAn=         5 IDoV=-2 UseB2=F ITyADJ=14
 ICtDFT= 12500011 ScaDFX=  1.000000  1.000000  1.000000  1.000000
 Range of M.O.s used for correlation:     3    42
 NBasis=    42 NAE=     9 NBE=     9 NFC=     2 NFV=     0
 NROrb=     40 NOA=     7 NOB=     7 NVA=    33 NVB=    33
 Semi-Direct transformation.
 ModeAB=           4 MOrb=             7 LenV=      33361378
 LASXX=        95791 LTotXX=       95791 LenRXX=      198779
 LTotAB=      102988 MaxLAS=      144480 LenRXY=           0
 NonZer=      294570 LenScr=      883712 LnRSAI=      144480
 LnScr1=      785920 LExtra=           0 Total=      2012891
 MaxDsk=          -1 SrtSym=           T ITran=            4
 JobTyp=0 Pass  1:  I=   1 to   7.
 (rs|ai) integrals will be sorted in core.
 Spin components of T(2) and E(2):
     alpha-alpha T2 =       0.9636107651D-02 E2=     -0.2874109132D-01
     alpha-beta  T2 =       0.6962661258D-01 E2=     -0.2089306965D+00
     beta-beta   T2 =       0.9636107651D-02 E2=     -0.2874109132D-01
 ANorm=    0.1043503152D+01
 E2 =    -0.2664128791D+00 EUMP2 =    -0.79494665354577D+02
 Keep R2 and R3 ints in memory in symmetry-blocked form, NReq=1232230.
 Iterations=  50 Convergence= 0.100D-07
 Iteration Nr.   1
 **********************
 DD1Dir will call FoFMem   1 times, MxPair=        56
 NAB=    28 NAA=     0 NBB=     0.
 MP4(R+Q)=  0.36870101D-02
 E3=       -0.26199560D-01        EUMP3=      -0.79520864914D+02
 E4(DQ)=   -0.37333638D-02        UMP4(DQ)=   -0.79524598278D+02
 E4(SDQ)=  -0.56151911D-02        UMP4(SDQ)=  -0.79526480105D+02
 DE(Corr)= -0.28873883     E(Corr)=     -79.516991309    
 NORM(A)=   0.10534059D+01
 Iteration Nr.   2
 **********************
 DD1Dir will call FoFMem   1 times, MxPair=        56
 NAB=    28 NAA=     0 NBB=     0.
 DE(Corr)= -0.29682124     E(CORR)=     -79.525073715     Delta=-8.08D-03
 NORM(A)=   0.10571860D+01
 Iteration Nr.   3
 **********************
 DD1Dir will call FoFMem   1 times, MxPair=        56
 NAB=    28 NAA=     0 NBB=     0.
 DE(Corr)= -0.29874343     E(CORR)=     -79.526995907     Delta=-1.92D-03
 NORM(A)=   0.10577956D+01
 Iteration Nr.   4
 **********************
 DD1Dir will call FoFMem   1 times, MxPair=        56
 NAB=    28 NAA=     0 NBB=     0.
 DE(Corr)= -0.29920424     E(CORR)=     -79.527456719     Delta=-4.61D-04
 NORM(A)=   0.10578777D+01
 Iteration Nr.   5
 **********************
 DD1Dir will call FoFMem   1 times, MxPair=        56
 NAB=    28 NAA=     0 NBB=     0.
 DE(Corr)= -0.29923707     E(CORR)=     -79.527489546     Delta=-3.28D-05
 NORM(A)=   0.10578794D+01
 Iteration Nr.   6
 **********************
 DD1Dir will call FoFMem   1 times, MxPair=        56
 NAB=    28 NAA=     0 NBB=     0.
 DE(Corr)= -0.29923799     E(CORR)=     -79.527490465     Delta=-9.19D-07
 NORM(A)=   0.10578785D+01
 Iteration Nr.   7
 **********************
 DD1Dir will call FoFMem   1 times, MxPair=        56
 NAB=    28 NAA=     0 NBB=     0.
 DE(Corr)= -0.29923777     E(CORR)=     -79.527490247     Delta= 2.17D-07
 NORM(A)=   0.10578788D+01
 Iteration Nr.   8
 **********************
 DD1Dir will call FoFMem   1 times, MxPair=        56
 NAB=    28 NAA=     0 NBB=     0.
 DE(Corr)= -0.29923781     E(CORR)=     -79.527490285     Delta=-3.74D-08
 NORM(A)=   0.10578788D+01
 Iteration Nr.   9
 **********************
 DD1Dir will call FoFMem   1 times, MxPair=        56
 NAB=    28 NAA=     0 NBB=     0.
 DE(Corr)= -0.29923785     E(CORR)=     -79.527490326     Delta=-4.10D-08
 NORM(A)=   0.10578788D+01
 Iteration Nr.  10
 **********************
 DD1Dir will call FoFMem   1 times, MxPair=        56
 NAB=    28 NAA=     0 NBB=     0.
 DE(Corr)= -0.29923786     E(CORR)=     -79.527490334     Delta=-8.56D-09
 NORM(A)=   0.10578788D+01
 Iteration Nr.  11
 **********************
 DD1Dir will call FoFMem   1 times, MxPair=        56
 NAB=    28 NAA=     0 NBB=     0.
 DE(Corr)= -0.29923786     E(CORR)=     -79.527490339     Delta=-4.47D-09
 NORM(A)=   0.10578788D+01
 Largest amplitude= 3.94D-02

 Z-AMPLITUDE ITERATIONS

 Iteration Nr.   1
 **********************
 DD1Dir will call FoFMem   1 times, MxPair=        56
 NAB=    28 NAA=     0 NBB=     0.
 DE(Z)  -0.29383030D+00          E(Z)=    -0.79522082778D+02
 NORM(A)=   0.10578789D+01
 Iteration Nr.   2
 **********************
 DD1Dir will call FoFMem   1 times, MxPair=        56
 NAB=    28 NAA=     0 NBB=     0.
 DE(Z)  -0.29383033D+00          E(Z)=    -0.79522082809D+02
 NORM(A)=   0.10578789D+01
 Iteration Nr.   3
 **********************
 DD1Dir will call FoFMem   1 times, MxPair=        56
 NAB=    28 NAA=     0 NBB=     0.
 DE(Z)  -0.29383037D+00          E(Z)=    -0.79522082842D+02
 NORM(A)=   0.10578789D+01
 Iteration Nr.   4
 **********************
 DD1Dir will call FoFMem   1 times, MxPair=        56
 NAB=    28 NAA=     0 NBB=     0.
 DE(Z)  -0.29383036D+00          E(Z)=    -0.79522082834D+02
 NORM(A)=   0.10578790D+01
 Iteration Nr.   5
 **********************
 DD1Dir will call FoFMem   1 times, MxPair=        56
 NAB=    28 NAA=     0 NBB=     0.
 DE(Z)  -0.29383038D+00          E(Z)=    -0.79522082851D+02
 NORM(A)=   0.10549531D+01
 Iteration Nr.   6
 **********************
 DD1Dir will call FoFMem   1 times, MxPair=        56
 NAB=    28 NAA=     0 NBB=     0.
 DE(Z)  -0.29242639D+00          E(Z)=    -0.79520678869D+02
 NORM(A)=   0.10549789D+01
 Iteration Nr.   7
 **********************
 DD1Dir will call FoFMem   1 times, MxPair=        56
 NAB=    28 NAA=     0 NBB=     0.
 DE(Z)  -0.29242602D+00          E(Z)=    -0.79520678495D+02
 NORM(A)=   0.10549949D+01
 Iteration Nr.   8
 **********************
 DD1Dir will call FoFMem   1 times, MxPair=        56
 NAB=    28 NAA=     0 NBB=     0.
 DE(Z)  -0.29243061D+00          E(Z)=    -0.79520683089D+02
 NORM(A)=   0.10549956D+01
 Iteration Nr.   9
 **********************
 DD1Dir will call FoFMem   1 times, MxPair=        56
 NAB=    28 NAA=     0 NBB=     0.
 DE(Z)  -0.29243098D+00          E(Z)=    -0.79520683451D+02
 NORM(A)=   0.10549958D+01
 Iteration Nr.  10
 **********************
 DD1Dir will call FoFMem   1 times, MxPair=        56
 NAB=    28 NAA=     0 NBB=     0.
 DE(Z)  -0.29243110D+00          E(Z)=    -0.79520683577D+02
 NORM(A)=   0.10549958D+01
 Iteration Nr.  11
 **********************
 DD1Dir will call FoFMem   1 times, MxPair=        56
 NAB=    28 NAA=     0 NBB=     0.
 DE(Z)  -0.29243111D+00          E(Z)=    -0.79520683590D+02
 NORM(A)=   0.10549959D+01
 Iteration Nr.  12
 **********************
 DD1Dir will call FoFMem   1 times, MxPair=        56
 NAB=    28 NAA=     0 NBB=     0.
 DE(Z)  -0.29243112D+00          E(Z)=    -0.79520683593D+02
 NORM(A)=   0.10549959D+01
 Discarding MO integrals.
          IDoAtm=11111111
          Differentiating once with respect to electric field.
                with respect to dipole field.
          Differentiating once with respect to nuclear coordinates.
 Keep R1 ints in memory in symmetry-blocked form, NReq=1259085.
          There are     1 degrees of freedom in the 1st order CPHF.  IDoFFX=0 NUNeed=     1.
 LinEq1:  Iter=  0 NonCon=     1 RMS=4.68D-03 Max=2.47D-02 NDo=     1
 AX will form     1 AO Fock derivatives at one time.
 LinEq1:  Iter=  1 NonCon=     1 RMS=1.58D-03 Max=1.31D-02 NDo=     1
 LinEq1:  Iter=  2 NonCon=     1 RMS=1.83D-04 Max=1.29D-03 NDo=     1
 LinEq1:  Iter=  3 NonCon=     1 RMS=2.76D-05 Max=2.07D-04 NDo=     1
 LinEq1:  Iter=  4 NonCon=     1 RMS=2.19D-06 Max=1.31D-05 NDo=     1
 LinEq1:  Iter=  5 NonCon=     1 RMS=1.68D-07 Max=1.05D-06 NDo=     1
 LinEq1:  Iter=  6 NonCon=     1 RMS=1.05D-08 Max=6.44D-08 NDo=     1
 LinEq1:  Iter=  7 NonCon=     1 RMS=3.98D-10 Max=2.32D-09 NDo=     1
 LinEq1:  Iter=  8 NonCon=     0 RMS=3.06D-11 Max=2.19D-10 NDo=     1
 Linear equations converged to 1.000D-10 1.000D-09 after     8 iterations.
 End of Minotr F.D. properties file   721 does not exist.
 End of Minotr F.D. properties file   722 does not exist.
 End of Minotr F.D. properties file   788 does not exist.
 Calling FoFJK, ICntrl=  10002127 FMM=F ISym2X=1 I1Cent= 0 IOpClX= 0 NMat=1 NMatS=1 NMatT=0.
 ***** Axes restored to original set *****
 -------------------------------------------------------------------
 Center     Atomic                   Forces (Hartrees/Bohr)
 Number     Number              X              Y              Z
 -------------------------------------------------------------------
      1        6           0.003299959   -0.000170771    0.000000232
      2        6          -0.003299959    0.000170771   -0.000000232
      3        1          -0.000282042    0.000037046    0.000064646
      4        1          -0.000286650   -0.000052466   -0.000012975
      5        1          -0.000280702    0.000059311   -0.000051693
      6        1           0.000280702   -0.000059311    0.000051693
      7        1           0.000286650    0.000052466    0.000012975
      8        1           0.000282042   -0.000037046   -0.000064646
 -------------------------------------------------------------------
 Cartesian Forces:  Max     0.003299959 RMS     0.000964973

 GradGradGradGradGradGradGradGradGradGradGradGradGradGradGradGradGradGrad
 Berny optimization.
 Using GEDIIS/GDIIS optimizer.
 FormGI is forming the generalized inverse of G from B-inverse, IUseBI=4.
 Internal  Forces:  Max     0.002453847 RMS     0.000495949
 Search for a local minimum.
 Step number   2 out of a maximum of   38
 All quantities printed in internal units (Hartrees-Bohrs-Radians)
 Mixed Optimization -- En-DIIS/RFO-DIIS
 Update second derivatives using D2CorX and points    1    2
 DE= -2.17D-04 DEPred=-1.92D-04 R= 1.13D+00
 TightC=F SS=  1.41D+00  RLast= 4.44D-02 DXNew= 5.0454D-01 1.3323D-01
 Trust test= 1.13D+00 RLast= 4.44D-02 DXMaxT set to 3.00D-01
 ITU=  1  0
 Use linear search instead of GDIIS.
     Eigenvalues ---    0.00280   0.05456   0.05456   0.05456   0.05456
     Eigenvalues ---    0.13421   0.16000   0.16000   0.16000   0.16000
     Eigenvalues ---    0.16000   0.27731   0.34549   0.34549   0.34549
     Eigenvalues ---    0.34550   0.34550   0.37061
 RFO step:  Lambda=-2.51385219D-05 EMin= 2.79920382D-03
 Quartic linear search produced a step of  0.15915.
 Iteration  1 RMS(Cart)=  0.00141292 RMS(Int)=  0.00000885
 Iteration  2 RMS(Cart)=  0.00000354 RMS(Int)=  0.00000838
 Iteration  3 RMS(Cart)=  0.00000000 RMS(Int)=  0.00000838
 ClnCor:  largest displacement from symmetrization is 6.68D-09 for atom     7.
 Variable       Old X    -DE/DX   Delta X   Delta X   Delta X     New X
                                 (Linear)    (Quad)   (Total)
    R1        2.89962  -0.00245  -0.00070  -0.00947  -0.01017   2.88946
    R2        2.07171   0.00017   0.00121  -0.00015   0.00106   2.07277
    R3        2.07171   0.00017   0.00121  -0.00015   0.00106   2.07277
    R4        2.07171   0.00017   0.00121  -0.00015   0.00106   2.07277
    R5        2.07171   0.00017   0.00121  -0.00015   0.00106   2.07277
    R6        2.07171   0.00017   0.00121  -0.00015   0.00106   2.07277
    R7        2.07171   0.00017   0.00121  -0.00015   0.00106   2.07277
    A1        1.93823   0.00024   0.00180   0.00067   0.00246   1.94069
    A2        1.93823   0.00024   0.00180   0.00067   0.00246   1.94069
    A3        1.93823   0.00023   0.00180   0.00067   0.00246   1.94069
    A4        1.88225  -0.00025  -0.00188  -0.00071  -0.00260   1.87964
    A5        1.88225  -0.00025  -0.00188  -0.00071  -0.00260   1.87964
    A6        1.88225  -0.00025  -0.00188  -0.00071  -0.00260   1.87964
    A7        1.93823   0.00023   0.00180   0.00067   0.00246   1.94069
    A8        1.93823   0.00024   0.00180   0.00067   0.00246   1.94069
    A9        1.93823   0.00024   0.00180   0.00067   0.00246   1.94069
   A10        1.88225  -0.00025  -0.00188  -0.00071  -0.00260   1.87964
   A11        1.88225  -0.00025  -0.00188  -0.00071  -0.00260   1.87964
   A12        1.88225  -0.00025  -0.00188  -0.00071  -0.00260   1.87964
    D1        1.04720   0.00000   0.00000   0.00000   0.00000   1.04720
    D2       -1.04720   0.00000   0.00000   0.00000   0.00000  -1.04720
    D3        3.14159   0.00000   0.00000   0.00000   0.00000   3.14159
    D4       -1.04720   0.00000   0.00000   0.00000   0.00000  -1.04720
    D5        3.14159   0.00000   0.00000   0.00000   0.00000   3.14159
    D6        1.04720   0.00000   0.00000   0.00000   0.00000   1.04720
    D7        3.14159   0.00000   0.00000   0.00000   0.00000   3.14159
    D8        1.04720   0.00000   0.00000   0.00000   0.00000   1.04720
    D9       -1.04720   0.00000   0.00000   0.00000   0.00000  -1.04720
         Item               Value     Threshold  Converged?
 Maximum Force            0.002454     0.000450     NO 
 RMS     Force            0.000496     0.000300     NO 
 Maximum Displacement     0.005076     0.001800     NO 
 RMS     Displacement     0.001414     0.001200     NO 
 Predicted change in Energy=-1.658719D-05
 GradGradGradGradGradGradGradGradGradGradGradGradGradGradGradGradGradGrad

                          Input orientation:                          
 ---------------------------------------------------------------------
 Center     Atomic      Atomic             Coordinates (Angstroms)
 Number     Number       Type             X           Y           Z
 ---------------------------------------------------------------------
      1          6           0       -6.383852    0.650811   -0.000001
      2          6           0       -4.856858    0.571819    0.000001
      3          1           0       -6.762557    1.005679    0.966312
      4          1           0       -6.831736   -0.331629   -0.193186
      5          1           0       -6.745269    1.339839   -0.773129
      6          1           0       -4.495441   -0.117209    0.773129
      7          1           0       -4.408974    1.554259    0.193186
      8          1           0       -4.478153    0.216951   -0.966312
 ---------------------------------------------------------------------
                    Distance matrix (angstroms):
                    1          2          3          4          5
     1  C    0.000000
     2  C    1.529036   0.000000
     3  H    1.096863   2.180294   0.000000
     4  H    1.096863   2.180294   1.771332   0.000000
     5  H    1.096863   2.180294   1.771332   1.771332   0.000000
     6  H    2.180294   1.096863   2.537324   2.537324   3.094452
     7  H    2.180294   1.096863   2.537325   3.094452   2.537324
     8  H    2.180294   1.096863   3.094452   2.537325   2.537324
                    6          7          8
     6  H    0.000000
     7  H    1.771332   0.000000
     8  H    1.771332   1.771332   0.000000
 Stoichiometry    C2H6
 Framework group  CI[X(C2H6)]
 Deg. of freedom     9
 Full point group                 CI      NOp   2
 Largest Abelian subgroup         CI      NOp   2
 Largest concise Abelian subgroup CI      NOp   2
                         Standard orientation:                         
 ---------------------------------------------------------------------
 Center     Atomic      Atomic             Coordinates (Angstroms)
 Number     Number       Type             X           Y           Z
 ---------------------------------------------------------------------
      1          6           0       -0.763497    0.039496   -0.000001
      2          6           0        0.763497   -0.039496    0.000001
      3          1           0       -1.142202    0.394364    0.966312
      4          1           0       -1.211381   -0.942944   -0.193186
      5          1           0       -1.124914    0.728524   -0.773129
      6          1           0        1.124914   -0.728524    0.773129
      7          1           0        1.211381    0.942944    0.193186
      8          1           0        1.142202   -0.394364   -0.966312
 ---------------------------------------------------------------------
 Rotational constants (GHZ):     79.9102124     19.9428375     19.9428365
 Standard basis: 6-31G(d) (6D, 7F)
 There are    21 symmetry adapted cartesian basis functions of AG  symmetry.
 There are    21 symmetry adapted cartesian basis functions of AU  symmetry.
 There are    21 symmetry adapted basis functions of AG  symmetry.
 There are    21 symmetry adapted basis functions of AU  symmetry.
    42 basis functions,    80 primitive gaussians,    42 cartesian basis functions
     9 alpha electrons        9 beta electrons
       nuclear repulsion energy        42.1214994718 Hartrees.
 NAtoms=    8 NActive=    8 NUniq=    4 SFac= 4.00D+00 NAtFMM=   60 NAOKFM=F Big=F
 Integral buffers will be    131072 words long.
 Raffenetti 1 integral format.
 Two-electron integral symmetry is turned on.
 One-electron integrals computed using PRISM.
 NBasis=    42 RedAO= T EigKep=  5.97D-03  NBF=    21    21
 NBsUse=    42 1.00D-06 EigRej= -1.00D+00 NBFU=    21    21
 Initial guess from the checkpoint file:  "/scr/Gau-662.chk"
 B after Tr=     0.000000    0.000000    0.000000
         Rot=    1.000000    0.000000    0.000000    0.000000 Ang=   0.00 deg.
 Initial guess orbital symmetries:
       Occupied  (AG) (AU) (AG) (AU) (AU) (AU) (AG) (AG) (AG)
       Virtual   (AG) (AG) (AG) (AG) (AG) (AG) (AG) (AG) (AG) (AG)
                 (AG) (AG) (AG) (AG) (AG) (AG) (AU) (AU) (AU) (AU)
                 (AU) (AU) (AU) (AU) (AU) (AU) (AU) (AU) (AU) (AU)
                 (AU) (AU) (AU)
 Keep R1 ints in memory in symmetry-blocked form, NReq=1274634.
 Requested convergence on RMS density matrix=1.00D-08 within 128 cycles.
 Requested convergence on MAX density matrix=1.00D-06.
 Requested convergence on             energy=1.00D-06.
 No special actions if energy rises.
 SCF Done:  E(RHF) =  -79.2282430434     A.U. after    7 cycles
            NFock=  7  Conv=0.12D-08     -V/T= 2.0016
 ExpMin= 1.61D-01 ExpMax= 3.05D+03 ExpMxC= 4.57D+02 IAcc=3 IRadAn=         5 AccDes= 0.00D+00
 HarFok:  IExCor=  205 AccDes= 0.00D+00 IRadAn=         5 IDoV=-2 UseB2=F ITyADJ=14
 ICtDFT= 12500011 ScaDFX=  1.000000  1.000000  1.000000  1.000000
 Range of M.O.s used for correlation:     3    42
 NBasis=    42 NAE=     9 NBE=     9 NFC=     2 NFV=     0
 NROrb=     40 NOA=     7 NOB=     7 NVA=    33 NVB=    33
 Semi-Direct transformation.
 ModeAB=           4 MOrb=             7 LenV=      33361378
 LASXX=        95791 LTotXX=       95791 LenRXX=      198779
 LTotAB=      102988 MaxLAS=      144480 LenRXY=           0
 NonZer=      294570 LenScr=      883712 LnRSAI=      144480
 LnScr1=      785920 LExtra=           0 Total=      2012891
 MaxDsk=          -1 SrtSym=           T ITran=            4
 JobTyp=0 Pass  1:  I=   1 to   7.
 (rs|ai) integrals will be sorted in core.
 Spin components of T(2) and E(2):
     alpha-alpha T2 =       0.9635374908D-02 E2=     -0.2875487949D-01
     alpha-beta  T2 =       0.6959782205D-01 E2=     -0.2089330484D+00
     beta-beta   T2 =       0.9635374908D-02 E2=     -0.2875487949D-01
 ANorm=    0.1043488654D+01
 E2 =    -0.2664428074D+00 EUMP2 =    -0.79494685850792D+02
 Keep R2 and R3 ints in memory in symmetry-blocked form, NReq=1232230.
 Iterations=  50 Convergence= 0.100D-07
 Iteration Nr.   1
 **********************
 DD1Dir will call FoFMem   1 times, MxPair=        56
 NAB=    28 NAA=     0 NBB=     0.
 MP4(R+Q)=  0.36821756D-02
 E3=       -0.26191728D-01        EUMP3=      -0.79520877579D+02
 E4(DQ)=   -0.37384086D-02        UMP4(DQ)=   -0.79524615987D+02
 E4(SDQ)=  -0.56196416D-02        UMP4(SDQ)=  -0.79526497220D+02
 DE(Corr)= -0.28876572     E(Corr)=     -79.517008759    
 NORM(A)=   0.10533904D+01
 Iteration Nr.   2
 **********************
 DD1Dir will call FoFMem   1 times, MxPair=        56
 NAB=    28 NAA=     0 NBB=     0.
 DE(Corr)= -0.29684758     E(CORR)=     -79.525090619     Delta=-8.08D-03
 NORM(A)=   0.10571705D+01
 Iteration Nr.   3
 **********************
 DD1Dir will call FoFMem   1 times, MxPair=        56
 NAB=    28 NAA=     0 NBB=     0.
 DE(Corr)= -0.29876948     E(CORR)=     -79.527012527     Delta=-1.92D-03
 NORM(A)=   0.10577800D+01
 Iteration Nr.   4
 **********************
 DD1Dir will call FoFMem   1 times, MxPair=        56
 NAB=    28 NAA=     0 NBB=     0.
 DE(Corr)= -0.29923001     E(CORR)=     -79.527473052     Delta=-4.61D-04
 NORM(A)=   0.10578619D+01
 Iteration Nr.   5
 **********************
 DD1Dir will call FoFMem   1 times, MxPair=        56
 NAB=    28 NAA=     0 NBB=     0.
 DE(Corr)= -0.29926276     E(CORR)=     -79.527505806     Delta=-3.28D-05
 NORM(A)=   0.10578636D+01
 Iteration Nr.   6
 **********************
 DD1Dir will call FoFMem   1 times, MxPair=        56
 NAB=    28 NAA=     0 NBB=     0.
 DE(Corr)= -0.29926368     E(CORR)=     -79.527506727     Delta=-9.22D-07
 NORM(A)=   0.10578628D+01
 Iteration Nr.   7
 **********************
 DD1Dir will call FoFMem   1 times, MxPair=        56
 NAB=    28 NAA=     0 NBB=     0.
 DE(Corr)= -0.29926347     E(CORR)=     -79.527506510     Delta= 2.17D-07
 NORM(A)=   0.10578630D+01
 Iteration Nr.   8
 **********************
 DD1Dir will call FoFMem   1 times, MxPair=        56
 NAB=    28 NAA=     0 NBB=     0.
 DE(Corr)= -0.29926350     E(CORR)=     -79.527506547     Delta=-3.73D-08
 NORM(A)=   0.10578630D+01
 Iteration Nr.   9
 **********************
 DD1Dir will call FoFMem   1 times, MxPair=        56
 NAB=    28 NAA=     0 NBB=     0.
 DE(Corr)= -0.29926355     E(CORR)=     -79.527506589     Delta=-4.12D-08
 NORM(A)=   0.10578630D+01
 Iteration Nr.  10
 **********************
 DD1Dir will call FoFMem   1 times, MxPair=        56
 NAB=    28 NAA=     0 NBB=     0.
 DE(Corr)= -0.29926355     E(CORR)=     -79.527506597     Delta=-8.56D-09
 NORM(A)=   0.10578630D+01
 Iteration Nr.  11
 **********************
 DD1Dir will call FoFMem   1 times, MxPair=        56
 NAB=    28 NAA=     0 NBB=     0.
 DE(Corr)= -0.29926356     E(CORR)=     -79.527506602     Delta=-4.47D-09
 NORM(A)=   0.10578630D+01
 Largest amplitude= 3.88D-02

 Z-AMPLITUDE ITERATIONS

 Iteration Nr.   1
 **********************
 DD1Dir will call FoFMem   1 times, MxPair=        56
 NAB=    28 NAA=     0 NBB=     0.
 DE(Z)  -0.29386182D+00          E(Z)=    -0.79522104861D+02
 NORM(A)=   0.10578631D+01
 Iteration Nr.   2
 **********************
 DD1Dir will call FoFMem   1 times, MxPair=        56
 NAB=    28 NAA=     0 NBB=     0.
 DE(Z)  -0.29386184D+00          E(Z)=    -0.79522104880D+02
 NORM(A)=   0.10578631D+01
 Iteration Nr.   3
 **********************
 DD1Dir will call FoFMem   1 times, MxPair=        56
 NAB=    28 NAA=     0 NBB=     0.
 DE(Z)  -0.29386184D+00          E(Z)=    -0.79522104885D+02
 NORM(A)=   0.10578630D+01
 Iteration Nr.   4
 **********************
 DD1Dir will call FoFMem   1 times, MxPair=        56
 NAB=    28 NAA=     0 NBB=     0.
 DE(Z)  -0.29386181D+00          E(Z)=    -0.79522104857D+02
 NORM(A)=   0.10578631D+01
 Iteration Nr.   5
 **********************
 DD1Dir will call FoFMem   1 times, MxPair=        56
 NAB=    28 NAA=     0 NBB=     0.
 DE(Z)  -0.29386185D+00          E(Z)=    -0.79522104895D+02
 NORM(A)=   0.10549653D+01
 Iteration Nr.   6
 **********************
 DD1Dir will call FoFMem   1 times, MxPair=        56
 NAB=    28 NAA=     0 NBB=     0.
 DE(Z)  -0.29245575D+00          E(Z)=    -0.79520698794D+02
 NORM(A)=   0.10549762D+01
 Iteration Nr.   7
 **********************
 DD1Dir will call FoFMem   1 times, MxPair=        56
 NAB=    28 NAA=     0 NBB=     0.
 DE(Z)  -0.29245945D+00          E(Z)=    -0.79520702492D+02
 NORM(A)=   0.10549825D+01
 Iteration Nr.   8
 **********************
 DD1Dir will call FoFMem   1 times, MxPair=        56
 NAB=    28 NAA=     0 NBB=     0.
 DE(Z)  -0.29246202D+00          E(Z)=    -0.79520705068D+02
 NORM(A)=   0.10549827D+01
 Iteration Nr.   9
 **********************
 DD1Dir will call FoFMem   1 times, MxPair=        56
 NAB=    28 NAA=     0 NBB=     0.
 DE(Z)  -0.29246217D+00          E(Z)=    -0.79520705214D+02
 NORM(A)=   0.10549828D+01
 Iteration Nr.  10
 **********************
 DD1Dir will call FoFMem   1 times, MxPair=        56
 NAB=    28 NAA=     0 NBB=     0.
 DE(Z)  -0.29246218D+00          E(Z)=    -0.79520705227D+02
 NORM(A)=   0.10549828D+01
 Iteration Nr.  11
 **********************
 DD1Dir will call FoFMem   1 times, MxPair=        56
 NAB=    28 NAA=     0 NBB=     0.
 DE(Z)  -0.29246218D+00          E(Z)=    -0.79520705228D+02
 NORM(A)=   0.10549828D+01
 Discarding MO integrals.
          IDoAtm=11111111
          Differentiating once with respect to electric field.
                with respect to dipole field.
          Differentiating once with respect to nuclear coordinates.
 Keep R1 ints in memory in symmetry-blocked form, NReq=1259085.
          There are     1 degrees of freedom in the 1st order CPHF.  IDoFFX=0 NUNeed=     1.
 LinEq1:  Iter=  0 NonCon=     1 RMS=4.68D-03 Max=2.22D-02 NDo=     1
 AX will form     1 AO Fock derivatives at one time.
 LinEq1:  Iter=  1 NonCon=     1 RMS=1.59D-03 Max=1.33D-02 NDo=     1
 LinEq1:  Iter=  2 NonCon=     1 RMS=1.85D-04 Max=1.33D-03 NDo=     1
 LinEq1:  Iter=  3 NonCon=     1 RMS=2.76D-05 Max=2.04D-04 NDo=     1
 LinEq1:  Iter=  4 NonCon=     1 RMS=2.19D-06 Max=1.26D-05 NDo=     1
 LinEq1:  Iter=  5 NonCon=     1 RMS=1.69D-07 Max=1.05D-06 NDo=     1
 LinEq1:  Iter=  6 NonCon=     1 RMS=1.06D-08 Max=6.43D-08 NDo=     1
 LinEq1:  Iter=  7 NonCon=     1 RMS=4.83D-10 Max=4.17D-09 NDo=     1
 LinEq1:  Iter=  8 NonCon=     0 RMS=4.62D-11 Max=3.99D-10 NDo=     1
 Linear equations converged to 1.000D-10 1.000D-09 after     8 iterations.
 End of Minotr F.D. properties file   721 does not exist.
 End of Minotr F.D. properties file   722 does not exist.
 End of Minotr F.D. properties file   788 does not exist.
 Calling FoFJK, ICntrl=  10002127 FMM=F ISym2X=1 I1Cent= 0 IOpClX= 0 NMat=1 NMatS=1 NMatT=0.
 ***** Axes restored to original set *****
 -------------------------------------------------------------------
 Center     Atomic                   Forces (Hartrees/Bohr)
 Number     Number              X              Y              Z
 -------------------------------------------------------------------
      1        6          -0.000151846    0.000007966   -0.000000095
      2        6           0.000151846   -0.000007966    0.000000095
      3        1           0.000003861   -0.000038340   -0.000109969
      4        1           0.000011720    0.000113775    0.000021976
      5        1           0.000001878   -0.000076412    0.000088044
      6        1          -0.000001878    0.000076412   -0.000088044
      7        1          -0.000011720   -0.000113775   -0.000021976
      8        1          -0.000003861    0.000038340    0.000109969
 -------------------------------------------------------------------
 Cartesian Forces:  Max     0.000151846 RMS     0.000072948

 GradGradGradGradGradGradGradGradGradGradGradGradGradGradGradGradGradGrad
 Berny optimization.
 Using GEDIIS/GDIIS optimizer.
 FormGI is forming the generalized inverse of G from B-inverse, IUseBI=4.
 Internal  Forces:  Max     0.000134569 RMS     0.000062049
 Search for a local minimum.
 Step number   3 out of a maximum of   38
 All quantities printed in internal units (Hartrees-Bohrs-Radians)
 Mixed Optimization -- En-DIIS/RFO-DIIS
 Swapping is turned off.
 Update second derivatives using D2CorX and points    1    2    3
 DE= -1.63D-05 DEPred=-1.66D-05 R= 9.80D-01
 TightC=F SS=  1.41D+00  RLast= 1.37D-02 DXNew= 5.0454D-01 4.1032D-02
 Trust test= 9.80D-01 RLast= 1.37D-02 DXMaxT set to 3.00D-01
 ITU=  1  1  0
     Eigenvalues ---    0.00280   0.05430   0.05430   0.05430   0.05430
     Eigenvalues ---    0.12374   0.16000   0.16000   0.16000   0.16000
     Eigenvalues ---    0.16000   0.30576   0.34549   0.34549   0.34549
     Eigenvalues ---    0.34550   0.34550   0.37051
 En-DIIS/RFO-DIIS IScMMF=        0 using points:     3    2
 RFO step:  Lambda=-1.95065627D-07.
 DidBck=F Rises=F RFO-DIIS coefs:    0.97224    0.02776
 Iteration  1 RMS(Cart)=  0.00031901 RMS(Int)=  0.00000006
 Iteration  2 RMS(Cart)=  0.00000005 RMS(Int)=  0.00000004
 ClnCor:  largest displacement from symmetrization is 7.57D-09 for atom     7.
 Variable       Old X    -DE/DX   Delta X   Delta X   Delta X     New X
                                 (Linear)    (Quad)   (Total)
    R1        2.88946   0.00013   0.00028   0.00010   0.00038   2.88984
    R2        2.07277  -0.00011  -0.00003  -0.00029  -0.00031   2.07246
    R3        2.07277  -0.00011  -0.00003  -0.00028  -0.00031   2.07246
    R4        2.07277  -0.00011  -0.00003  -0.00029  -0.00031   2.07246
    R5        2.07277  -0.00011  -0.00003  -0.00029  -0.00031   2.07246
    R6        2.07277  -0.00011  -0.00003  -0.00028  -0.00031   2.07246
    R7        2.07277  -0.00011  -0.00003  -0.00029  -0.00031   2.07246
    A1        1.94069   0.00004  -0.00007   0.00029   0.00022   1.94091
    A2        1.94069   0.00004  -0.00007   0.00029   0.00022   1.94091
    A3        1.94069   0.00004  -0.00007   0.00029   0.00022   1.94091
    A4        1.87964  -0.00004   0.00007  -0.00031  -0.00023   1.87941
    A5        1.87964  -0.00004   0.00007  -0.00031  -0.00023   1.87941
    A6        1.87964  -0.00004   0.00007  -0.00031  -0.00023   1.87941
    A7        1.94069   0.00004  -0.00007   0.00029   0.00022   1.94091
    A8        1.94069   0.00004  -0.00007   0.00029   0.00022   1.94091
    A9        1.94069   0.00004  -0.00007   0.00029   0.00022   1.94091
   A10        1.87964  -0.00004   0.00007  -0.00031  -0.00023   1.87941
   A11        1.87964  -0.00004   0.00007  -0.00031  -0.00023   1.87941
   A12        1.87964  -0.00004   0.00007  -0.00031  -0.00023   1.87941
    D1        1.04720   0.00000   0.00000   0.00000   0.00000   1.04720
    D2       -1.04720   0.00000   0.00000   0.00000   0.00000  -1.04720
    D3        3.14159   0.00000   0.00000   0.00000   0.00000   3.14159
    D4       -1.04720   0.00000   0.00000   0.00000   0.00000  -1.04720
    D5        3.14159   0.00000   0.00000   0.00000   0.00000   3.14159
    D6        1.04720   0.00000   0.00000   0.00000   0.00000   1.04720
    D7        3.14159   0.00000   0.00000   0.00000   0.00000   3.14159
    D8        1.04720   0.00000   0.00000   0.00000   0.00000   1.04720
    D9       -1.04720   0.00000   0.00000   0.00000   0.00000  -1.04720
         Item               Value     Threshold  Converged?
 Maximum Force            0.000135     0.000450     YES
 RMS     Force            0.000062     0.000300     YES
 Maximum Displacement     0.000518     0.001800     YES
 RMS     Displacement     0.000319     0.001200     YES
 Predicted change in Energy=-1.802529D-07
 Optimization completed.
    -- Stationary point found.
                           ----------------------------
                           !   Optimized Parameters   !
                           ! (Angstroms and Degrees)  !
 --------------------------                            --------------------------
 ! Name  Definition              Value          Derivative Info.                !
 --------------------------------------------------------------------------------
 ! R1    R(1,2)                  1.529          -DE/DX =    0.0001              !
 ! R2    R(1,3)                  1.0969         -DE/DX =   -0.0001              !
 ! R3    R(1,4)                  1.0969         -DE/DX =   -0.0001              !
 ! R4    R(1,5)                  1.0969         -DE/DX =   -0.0001              !
 ! R5    R(2,6)                  1.0969         -DE/DX =   -0.0001              !
 ! R6    R(2,7)                  1.0969         -DE/DX =   -0.0001              !
 ! R7    R(2,8)                  1.0969         -DE/DX =   -0.0001              !
 ! A1    A(2,1,3)              111.1932         -DE/DX =    0.0                 !
 ! A2    A(2,1,4)              111.1932         -DE/DX =    0.0                 !
 ! A3    A(2,1,5)              111.1932         -DE/DX =    0.0                 !
 ! A4    A(3,1,4)              107.6957         -DE/DX =    0.0                 !
 ! A5    A(3,1,5)              107.6957         -DE/DX =    0.0                 !
 ! A6    A(4,1,5)              107.6957         -DE/DX =    0.0                 !
 ! A7    A(1,2,6)              111.1932         -DE/DX =    0.0                 !
 ! A8    A(1,2,7)              111.1932         -DE/DX =    0.0                 !
 ! A9    A(1,2,8)              111.1932         -DE/DX =    0.0                 !
 ! A10   A(6,2,7)              107.6957         -DE/DX =    0.0                 !
 ! A11   A(6,2,8)              107.6957         -DE/DX =    0.0                 !
 ! A12   A(7,2,8)              107.6957         -DE/DX =    0.0                 !
 ! D1    D(3,1,2,6)             60.0            -DE/DX =    0.0                 !
 ! D2    D(3,1,2,7)            -60.0            -DE/DX =    0.0                 !
 ! D3    D(3,1,2,8)            180.0            -DE/DX =    0.0                 !
 ! D4    D(4,1,2,6)            -60.0            -DE/DX =    0.0                 !
 ! D5    D(4,1,2,7)            180.0            -DE/DX =    0.0                 !
 ! D6    D(4,1,2,8)             60.0            -DE/DX =    0.0                 !
 ! D7    D(5,1,2,6)            180.0            -DE/DX =    0.0                 !
 ! D8    D(5,1,2,7)             60.0            -DE/DX =    0.0                 !
 ! D9    D(5,1,2,8)            -60.0            -DE/DX =    0.0                 !
 --------------------------------------------------------------------------------
 GradGradGradGradGradGradGradGradGradGradGradGradGradGradGradGradGradGrad

                          Input orientation:                          
 ---------------------------------------------------------------------
 Center     Atomic      Atomic             Coordinates (Angstroms)
 Number     Number       Type             X           Y           Z
 ---------------------------------------------------------------------
      1          6           0       -6.383852    0.650811   -0.000001
      2          6           0       -4.856858    0.571819    0.000001
      3          1           0       -6.762557    1.005679    0.966312
      4          1           0       -6.831736   -0.331629   -0.193186
      5          1           0       -6.745269    1.339839   -0.773129
      6          1           0       -4.495441   -0.117209    0.773129
      7          1           0       -4.408974    1.554259    0.193186
      8          1           0       -4.478153    0.216951   -0.966312
 ---------------------------------------------------------------------
                    Distance matrix (angstroms):
                    1          2          3          4          5
     1  C    0.000000
     2  C    1.529036   0.000000
     3  H    1.096863   2.180294   0.000000
     4  H    1.096863   2.180294   1.771332   0.000000
     5  H    1.096863   2.180294   1.771332   1.771332   0.000000
     6  H    2.180294   1.096863   2.537324   2.537324   3.094452
     7  H    2.180294   1.096863   2.537325   3.094452   2.537324
     8  H    2.180294   1.096863   3.094452   2.537325   2.537324
                    6          7          8
     6  H    0.000000
     7  H    1.771332   0.000000
     8  H    1.771332   1.771332   0.000000
 Stoichiometry    C2H6
 Framework group  CI[X(C2H6)]
 Deg. of freedom     9
 Full point group                 CI      NOp   2
 Largest Abelian subgroup         CI      NOp   2
 Largest concise Abelian subgroup CI      NOp   2
                         Standard orientation:                         
 ---------------------------------------------------------------------
 Center     Atomic      Atomic             Coordinates (Angstroms)
 Number     Number       Type             X           Y           Z
 ---------------------------------------------------------------------
      1          6           0       -0.763497    0.039496   -0.000001
      2          6           0        0.763497   -0.039496    0.000001
      3          1           0       -1.142202    0.394364    0.966312
      4          1           0       -1.211381   -0.942944   -0.193186
      5          1           0       -1.124914    0.728524   -0.773129
      6          1           0        1.124914   -0.728524    0.773129
      7          1           0        1.211381    0.942944    0.193186
      8          1           0        1.142202   -0.394364   -0.966312
 ---------------------------------------------------------------------
 Rotational constants (GHZ):     79.9102124     19.9428375     19.9428365

 **********************************************************************

            Population analysis using the SCF density.

 **********************************************************************

 Orbital symmetries:
       Occupied  (AG) (AU) (AG) (AU) (AU) (AU) (AG) (AG) (AG)
       Virtual   (AG) (AU) (AU) (AU) (AG) (AG) (AU) (AG) (AU) (AU)
                 (AG) (AG) (AU) (AU) (AU) (AG) (AG) (AG) (AU) (AG)
                 (AU) (AU) (AU) (AG) (AG) (AG) (AU) (AU) (AG) (AG)
                 (AU) (AG) (AU)
 The electronic state is 1-AG.
 Alpha  occ. eigenvalues --  -11.21491 -11.21433  -1.01580  -0.83904  -0.59498
 Alpha  occ. eigenvalues --   -0.59498  -0.50884  -0.48528  -0.48528
 Alpha virt. eigenvalues --    0.24118   0.30027   0.31404   0.31404   0.33700
 Alpha virt. eigenvalues --    0.33700   0.41166   0.70817   0.74200   0.74200
 Alpha virt. eigenvalues --    0.85140   0.85140   0.94033   1.15073   1.15073
 Alpha virt. eigenvalues --    1.19554   1.19776   1.19776   1.24969   1.27459
 Alpha virt. eigenvalues --    1.68450   1.80321   1.80321   2.25040   2.29062
 Alpha virt. eigenvalues --    2.29062   2.60648   2.60648   2.66675   2.66675
 Alpha virt. eigenvalues --    2.93689   4.57202   4.79218
          Condensed to atoms (all electrons):
               1          2          3          4          5          6
     1  C    5.079456   0.325141   0.393488   0.393488   0.393488  -0.037594
     2  C    0.325141   5.079456  -0.037594  -0.037594  -0.037594   0.393488
     3  H    0.393488  -0.037594   0.546689  -0.029133  -0.029133  -0.002810
     4  H    0.393488  -0.037594  -0.029133   0.546689  -0.029133  -0.002810
     5  H    0.393488  -0.037594  -0.029133  -0.029133   0.546689   0.003876
     6  H   -0.037594   0.393488  -0.002810  -0.002810   0.003876   0.546689
     7  H   -0.037594   0.393488  -0.002810   0.003876  -0.002810  -0.029133
     8  H   -0.037594   0.393488   0.003876  -0.002810  -0.002810  -0.029133
               7          8
     1  C   -0.037594  -0.037594
     2  C    0.393488   0.393488
     3  H   -0.002810   0.003876
     4  H    0.003876  -0.002810
     5  H   -0.002810  -0.002810
     6  H   -0.029133  -0.029133
     7  H    0.546689  -0.029133
     8  H   -0.029133   0.546689
 Mulliken charges:
               1
     1  C   -0.472279
     2  C   -0.472279
     3  H    0.157426
     4  H    0.157426
     5  H    0.157426
     6  H    0.157426
     7  H    0.157426
     8  H    0.157426
 Sum of Mulliken charges =   0.00000
 Mulliken charges with hydrogens summed into heavy atoms:
               1
     1  C    0.000000
     2  C    0.000000
 Electronic spatial extent (au):  <R**2>=            110.2087
 Charge=              0.0000 electrons
 Dipole moment (field-independent basis, Debye):
    X=              0.0000    Y=              0.0000    Z=              0.0000  Tot=              0.0000
 Quadrupole moment (field-independent basis, Debye-Ang):
   XX=            -15.6143   YY=            -14.9712   ZZ=            -14.9694
   XY=              0.0334   XZ=              0.0000   YZ=              0.0000
 Traceless Quadrupole moment (field-independent basis, Debye-Ang):
   XX=             -0.4293   YY=              0.2138   ZZ=              0.2155
   XY=              0.0334   XZ=              0.0000   YZ=              0.0000
 Octapole moment (field-independent basis, Debye-Ang**2):
  XXX=              0.0000  YYY=              0.0000  ZZZ=              0.0000  XYY=              0.0000
  XXY=              0.0000  XXZ=              0.0000  XZZ=              0.0000  YZZ=              0.0000
  YYZ=              0.0000  XYZ=              0.0000
 Hexadecapole moment (field-independent basis, Debye-Ang**3):
 XXXX=            -93.8792 YYYY=            -29.4729 ZZZZ=            -29.0949 XXXY=              1.8434
 XXXZ=              0.0055 YYYX=              2.5769 YYYZ=             -0.1064 ZZZX=             -0.6876
 ZZZY=              0.0356 XXYY=            -19.4029 XXZZ=            -19.5813 YYZZ=             -9.6137
 XXYZ=              0.0709 YYXZ=              0.6820 ZZXY=             -0.5626
 N-N= 4.212149947179D+01 E-N=-2.678947138097D+02  KE= 7.910208055823D+01
 Symmetry AG   KE= 4.104327339155D+01
 Symmetry AU   KE= 3.805880716668D+01
 1\1\GINC-N0288\FOpt\RCCSD-FC\6-31G(d)\C2H6\GDAVIDS3\21-Feb-2017\0\\#n 
 CCSD/6-31G(d) Opt\\Ethane CCSD 6-31Gd\\0,1\C,-6.38385211,0.6508111107,
 -0.0000005091\C,-4.85685789,0.5718188893,0.0000005091\H,-6.7625570098,
 1.0056791804,0.96631225\H,-6.8317358803,-0.3316288577,-0.1931863315\H,
 -6.745269162,1.3398393838,-0.773128629\H,-4.495440838,-0.1172093838,0.
 773128629\H,-4.4089741197,1.5542588577,0.1931863315\H,-4.4781529902,0.
 2169508196,-0.96631225\\Version=ES64L-G09RevE.01\State=1-AG\HF=-79.228
 243\MP2=-79.4946859\MP3=-79.5208776\MP4D=-79.5282982\MP4DQ=-79.524616\
 MP4SDQ=-79.5264972\CCSD=-79.5275066\RMSD=1.157e-09\RMSF=7.295e-05\Dipo
 le=0.,0.,0.\PG=CI [X(C2H6)]\\@


 IN THE UNIVERSE THE DIFFICULT THINGS ARE DONE AS IF THEY WERE EASY.

                                                          -- LAO-TSU
 Job cpu time:       0 days  0 hours  3 minutes 25.5 seconds.
 File lengths (MBytes):  RWF=     40 Int=      0 D2E=      0 Chk=      1 Scr=      1
 Normal termination of Gaussian 09 at Tue Feb 21 17:29:37 2017.
