 Entering Gaussian System, Link 0=g09
 Input=Ethane_CCSD_3-21G.com
 Output=Ethane_CCSD_3-21G.log
 Initial command:
 /sw/contrib/gaussian/g09/E01/g09/l1.exe "/scr/Gau-16174.inp" -scrdir="/scr/"
 Entering Link 1 = /sw/contrib/gaussian/g09/E01/g09/l1.exe PID=     16175.
  
 Copyright (c) 1988,1990,1992,1993,1995,1998,2003,2009,2015,
            Gaussian, Inc.  All Rights Reserved.
  
 This is part of the Gaussian(R) 09 program.  It is based on
 the Gaussian(R) 03 system (copyright 2003, Gaussian, Inc.),
 the Gaussian(R) 98 system (copyright 1998, Gaussian, Inc.),
 the Gaussian(R) 94 system (copyright 1995, Gaussian, Inc.),
 the Gaussian 92(TM) system (copyright 1992, Gaussian, Inc.),
 the Gaussian 90(TM) system (copyright 1990, Gaussian, Inc.),
 the Gaussian 88(TM) system (copyright 1988, Gaussian, Inc.),
 the Gaussian 86(TM) system (copyright 1986, Carnegie Mellon
 University), and the Gaussian 82(TM) system (copyright 1983,
 Carnegie Mellon University). Gaussian is a federally registered
 trademark of Gaussian, Inc.
  
 This software contains proprietary and confidential information,
 including trade secrets, belonging to Gaussian, Inc.
  
 This software is provided under written license and may be
 used, copied, transmitted, or stored only in accord with that
 written license.
  
 The following legend is applicable only to US Government
 contracts under FAR:
  
                    RESTRICTED RIGHTS LEGEND
  
 Use, reproduction and disclosure by the US Government is
 subject to restrictions as set forth in subparagraphs (a)
 and (c) of the Commercial Computer Software - Restricted
 Rights clause in FAR 52.227-19.
  
 Gaussian, Inc.
 340 Quinnipiac St., Bldg. 40, Wallingford CT 06492
  
  
 ---------------------------------------------------------------
 Warning -- This program may not be used in any manner that
 competes with the business of Gaussian, Inc. or will provide
 assistance to any competitor of Gaussian, Inc.  The licensee
 of this program is prohibited from giving any competitor of
 Gaussian, Inc. access to this program.  By using this program,
 the user acknowledges that Gaussian, Inc. is engaged in the
 business of creating and licensing software in the field of
 computational chemistry and represents and warrants to the
 licensee that it is not a competitor of Gaussian, Inc. and that
 it will not use this program in any manner prohibited above.
 ---------------------------------------------------------------
  

 Cite this work as:
 Gaussian 09, Revision E.01,
 M. J. Frisch, G. W. Trucks, H. B. Schlegel, G. E. Scuseria, 
 M. A. Robb, J. R. Cheeseman, G. Scalmani, V. Barone, B. Mennucci, 
 G. A. Petersson, H. Nakatsuji, M. Caricato, X. Li, H. P. Hratchian, 
 A. F. Izmaylov, J. Bloino, G. Zheng, J. L. Sonnenberg, M. Hada, 
 M. Ehara, K. Toyota, R. Fukuda, J. Hasegawa, M. Ishida, T. Nakajima, 
 Y. Honda, O. Kitao, H. Nakai, T. Vreven, J. A. Montgomery, Jr., 
 J. E. Peralta, F. Ogliaro, M. Bearpark, J. J. Heyd, E. Brothers, 
 K. N. Kudin, V. N. Staroverov, T. Keith, R. Kobayashi, J. Normand, 
 K. Raghavachari, A. Rendell, J. C. Burant, S. S. Iyengar, J. Tomasi, 
 M. Cossi, N. Rega, J. M. Millam, M. Klene, J. E. Knox, J. B. Cross, 
 V. Bakken, C. Adamo, J. Jaramillo, R. Gomperts, R. E. Stratmann, 
 O. Yazyev, A. J. Austin, R. Cammi, C. Pomelli, J. W. Ochterski, 
 R. L. Martin, K. Morokuma, V. G. Zakrzewski, G. A. Voth, 
 P. Salvador, J. J. Dannenberg, S. Dapprich, A. D. Daniels, 
 O. Farkas, J. B. Foresman, J. V. Ortiz, J. Cioslowski, 
 and D. J. Fox, Gaussian, Inc., Wallingford CT, 2013.
 
 ******************************************
 Gaussian 09:  ES64L-G09RevE.01 30-Nov-2015
                21-Feb-2017 
 ******************************************
 %NProcShared=8
 Will use up to    8 processors via shared memory.
 -----------------
 #n CCSD/3-21G Opt
 -----------------
 1/18=20,19=15,38=1/1,3;
 2/9=110,12=2,17=6,18=5,40=1/2;
 3/5=5,11=9,16=1,25=1,30=1,71=1/1,2,3;
 4//1;
 5/5=2,38=5/2;
 8/6=4,9=120000,10=1/1,4;
 9/5=7,15=1/13;
 11/28=-8,29=200,42=3/11;
 10/5=6/2;
 6/7=2,8=2,9=2,10=2/1;
 7/12=7/1,2,3,16;
 1/18=20,19=15/3(2);
 2/9=110/2;
 99//99;
 2/9=110/2;
 3/5=5,11=9,16=1,25=1,30=1,71=1/1,2,3;
 4/5=5,16=3,69=1/1;
 5/5=2,38=5/2;
 8/6=4,9=120000,10=1/1,4;
 9/5=7,15=1/13;
 11/28=-8,29=200,42=3/11;
 10/5=6/2;
 7/12=7/1,2,3,16;
 1/18=20,19=15/3(-9);
 2/9=110/2;
 6/7=2,8=2,9=2,10=2/1;
 99//99;
 -----------------
 Ethane CCSD 3-21G
 -----------------
 Symbolic Z-matrix:
 Charge =  0 Multiplicity = 1
 C                    -6.3877    0.65101   0. 
 C                    -4.85301   0.57162   0. 
 H                    -6.75069   1.00542   0.96733 
 H                    -6.81994  -0.3333   -0.19339 
 H                    -6.73338   1.33993  -0.77394 
 H                    -4.50733  -0.1173    0.77394 
 H                    -4.42077   1.55593   0.19339 
 H                    -4.49002   0.21721  -0.96733 
 

 GradGradGradGradGradGradGradGradGradGradGradGradGradGradGradGradGradGrad
 Berny optimization.
 Initialization pass.
                           ----------------------------
                           !    Initial Parameters    !
                           ! (Angstroms and Degrees)  !
 --------------------------                            --------------------------
 ! Name  Definition              Value          Derivative Info.                !
 --------------------------------------------------------------------------------
 ! R1    R(1,2)                  1.5367         estimate D2E/DX2                !
 ! R2    R(1,3)                  1.0923         estimate D2E/DX2                !
 ! R3    R(1,4)                  1.0923         estimate D2E/DX2                !
 ! R4    R(1,5)                  1.0923         estimate D2E/DX2                !
 ! R5    R(2,6)                  1.0923         estimate D2E/DX2                !
 ! R6    R(2,7)                  1.0923         estimate D2E/DX2                !
 ! R7    R(2,8)                  1.0923         estimate D2E/DX2                !
 ! A1    A(2,1,3)              110.4041         estimate D2E/DX2                !
 ! A2    A(2,1,4)              110.4039         estimate D2E/DX2                !
 ! A3    A(2,1,5)              110.4038         estimate D2E/DX2                !
 ! A4    A(3,1,4)              108.5227         estimate D2E/DX2                !
 ! A5    A(3,1,5)              108.5224         estimate D2E/DX2                !
 ! A6    A(4,1,5)              108.5227         estimate D2E/DX2                !
 ! A7    A(1,2,6)              110.4038         estimate D2E/DX2                !
 ! A8    A(1,2,7)              110.4039         estimate D2E/DX2                !
 ! A9    A(1,2,8)              110.4041         estimate D2E/DX2                !
 ! A10   A(6,2,7)              108.5227         estimate D2E/DX2                !
 ! A11   A(6,2,8)              108.5224         estimate D2E/DX2                !
 ! A12   A(7,2,8)              108.5227         estimate D2E/DX2                !
 ! D1    D(3,1,2,6)             60.0002         estimate D2E/DX2                !
 ! D2    D(3,1,2,7)            -59.9998         estimate D2E/DX2                !
 ! D3    D(3,1,2,8)            180.0            estimate D2E/DX2                !
 ! D4    D(4,1,2,6)            -60.0            estimate D2E/DX2                !
 ! D5    D(4,1,2,7)            180.0            estimate D2E/DX2                !
 ! D6    D(4,1,2,8)             59.9998         estimate D2E/DX2                !
 ! D7    D(5,1,2,6)            180.0            estimate D2E/DX2                !
 ! D8    D(5,1,2,7)             60.0            estimate D2E/DX2                !
 ! D9    D(5,1,2,8)            -60.0002         estimate D2E/DX2                !
 --------------------------------------------------------------------------------
 Trust Radius=3.00D-01 FncErr=1.00D-07 GrdErr=1.00D-07
 Number of steps in this run=     38 maximum allowed number of steps=    100.
 GradGradGradGradGradGradGradGradGradGradGradGradGradGradGradGradGradGrad

                          Input orientation:                          
 ---------------------------------------------------------------------
 Center     Atomic      Atomic             Coordinates (Angstroms)
 Number     Number       Type             X           Y           Z
 ---------------------------------------------------------------------
      1          6           0       -6.387700    0.651010    0.000000
      2          6           0       -4.853010    0.571620    0.000000
      3          1           0       -6.750690    1.005420    0.967330
      4          1           0       -6.819940   -0.333300   -0.193390
      5          1           0       -6.733380    1.339930   -0.773940
      6          1           0       -4.507330   -0.117300    0.773940
      7          1           0       -4.420770    1.555930    0.193390
      8          1           0       -4.490020    0.217210   -0.967330
 ---------------------------------------------------------------------
                    Distance matrix (angstroms):
                    1          2          3          4          5
     1  C    0.000000
     2  C    1.536742   0.000000
     3  H    1.092289   2.173729   0.000000
     4  H    1.092290   2.173728   1.773200   0.000000
     5  H    1.092286   2.173724   1.773194   1.773198   0.000000
     6  H    2.173724   1.092286   2.516061   2.516058   3.078108
     7  H    2.173728   1.092290   2.516063   3.078117   2.516058
     8  H    2.173729   1.092289   3.078118   2.516063   2.516061
                    6          7          8
     6  H    0.000000
     7  H    1.773198   0.000000
     8  H    1.773194   1.773200   0.000000
 This structure is nearly, but not quite of a higher symmetry.
 Consider Symm=Loose if the higher symmetry is desired.
 Stoichiometry    C2H6
 Framework group  CI[X(C2H6)]
 Deg. of freedom     9
 Full point group                 CI      NOp   2
 Largest Abelian subgroup         CI      NOp   2
 Largest concise Abelian subgroup CI      NOp   2
                         Standard orientation:                         
 ---------------------------------------------------------------------
 Center     Atomic      Atomic             Coordinates (Angstroms)
 Number     Number       Type             X           Y           Z
 ---------------------------------------------------------------------
      1          6           0       -0.767345    0.039695    0.000000
      2          6           0        0.767345   -0.039695    0.000000
      3          1           0       -1.130335    0.394105    0.967330
      4          1           0       -1.199585   -0.944615   -0.193390
      5          1           0       -1.113025    0.728615   -0.773940
      6          1           0        1.113025   -0.728615    0.773940
      7          1           0        1.199585    0.944615    0.193390
      8          1           0        1.130335   -0.394105   -0.967330
 ---------------------------------------------------------------------
 Rotational constants (GHZ):     79.7421566     19.9565168     19.9564985
 Standard basis: 3-21G (6D, 7F)
 There are    15 symmetry adapted cartesian basis functions of AG  symmetry.
 There are    15 symmetry adapted cartesian basis functions of AU  symmetry.
 There are    15 symmetry adapted basis functions of AG  symmetry.
 There are    15 symmetry adapted basis functions of AU  symmetry.
    30 basis functions,    48 primitive gaussians,    30 cartesian basis functions
     9 alpha electrons        9 beta electrons
       nuclear repulsion energy        42.1695770054 Hartrees.
 NAtoms=    8 NActive=    8 NUniq=    4 SFac= 4.00D+00 NAtFMM=   60 NAOKFM=F Big=F
 Integral buffers will be    131072 words long.
 Raffenetti 1 integral format.
 Two-electron integral symmetry is turned on.
 One-electron integrals computed using PRISM.
 NBasis=    30 RedAO= T EigKep=  1.33D-02  NBF=    15    15
 NBsUse=    30 1.00D-06 EigRej= -1.00D+00 NBFU=    15    15
 ExpMin= 1.83D-01 ExpMax= 1.72D+02 ExpMxC= 1.72D+02 IAcc=1 IRadAn=         1 AccDes= 0.00D+00
 Harris functional with IExCor=  205 and IRadAn=       1 diagonalized for initial guess.
 HarFok:  IExCor=  205 AccDes= 0.00D+00 IRadAn=         1 IDoV= 1 UseB2=F ITyADJ=14
 ICtDFT=  3500011 ScaDFX=  1.000000  1.000000  1.000000  1.000000
 FoFCou: FMM=F IPFlag=           0 FMFlag=      100000 FMFlg1=           0
         NFxFlg=           0 DoJE=T BraDBF=F KetDBF=T FulRan=T
         wScrn=  0.000000 ICntrl=     500 IOpCl=  0 I1Cent=   200000004 NGrid=           0
         NMat0=    1 NMatS0=      1 NMatT0=    0 NMatD0=    1 NMtDS0=    0 NMtDT0=    0
 Petite list used in FoFCou.
 Initial guess orbital symmetries:
       Occupied  (AU) (AG) (AG) (AU) (AU) (AU) (AG) (AG) (AG)
       Virtual   (AG) (AU) (AU) (AU) (AG) (AG) (AU) (AU) (AU) (AG)
                 (AU) (AG) (AG) (AG) (AU) (AU) (AG) (AG) (AU) (AG)
                 (AU)
 The electronic state of the initial guess is 1-AG.
 Keep R1 ints in memory in symmetry-blocked form, NReq=940952.
 Requested convergence on RMS density matrix=1.00D-08 within 128 cycles.
 Requested convergence on MAX density matrix=1.00D-06.
 Requested convergence on             energy=1.00D-06.
 No special actions if energy rises.
 SCF Done:  E(RHF) =  -78.7935859918     A.U. after    9 cycles
            NFock=  9  Conv=0.65D-09     -V/T= 2.0026
 ExpMin= 1.83D-01 ExpMax= 1.72D+02 ExpMxC= 1.72D+02 IAcc=3 IRadAn=         5 AccDes= 0.00D+00
 HarFok:  IExCor=  205 AccDes= 0.00D+00 IRadAn=         5 IDoV=-2 UseB2=F ITyADJ=14
 ICtDFT= 12500011 ScaDFX=  1.000000  1.000000  1.000000  1.000000
 Range of M.O.s used for correlation:     3    30
 NBasis=    30 NAE=     9 NBE=     9 NFC=     2 NFV=     0
 NROrb=     28 NOA=     7 NOB=     7 NVA=    21 NVB=    21
 Semi-Direct transformation.
 ModeAB=           4 MOrb=             7 LenV=      33431936
 LASXX=        30133 LTotXX=       30133 LenRXX=       63623
 LTotAB=       33490 MaxLAS=       51744 LenRXY=           0
 NonZer=       93756 LenScr=      785920 LnRSAI=       51744
 LnScr1=      785920 LExtra=           0 Total=      1687207
 MaxDsk=          -1 SrtSym=           T ITran=            4
 JobTyp=0 Pass  1:  I=   1 to   7.
 (rs|ai) integrals will be sorted in core.
 Spin components of T(2) and E(2):
     alpha-alpha T2 =       0.6351406381D-02 E2=     -0.1748690253D-01
     alpha-beta  T2 =       0.5541492248D-01 E2=     -0.1533068202D+00
     beta-beta   T2 =       0.6351406381D-02 E2=     -0.1748690253D-01
 ANorm=    0.1033497816D+01
 E2 =    -0.1882806253D+00 EUMP2 =    -0.78981866617165D+02
 Keep R2 and R3 ints in memory in symmetry-blocked form, NReq=911104.
 Iterations=  50 Convergence= 0.100D-07
 Iteration Nr.   1
 **********************
 DD1Dir will call FoFMem   1 times, MxPair=        56
 NAB=    28 NAA=     0 NBB=     0.
 MP4(R+Q)=  0.12424057D-02
 E3=       -0.21870152D-01        EUMP3=      -0.79003736770D+02
 E4(DQ)=   -0.56129613D-02        UMP4(DQ)=   -0.79009349731D+02
 E4(SDQ)=  -0.63594926D-02        UMP4(SDQ)=  -0.79010096262D+02
 DE(Corr)= -0.20884429     E(Corr)=     -79.002430281    
 NORM(A)=   0.10436520D+01
 Iteration Nr.   2
 **********************
 DD1Dir will call FoFMem   1 times, MxPair=        56
 NAB=    28 NAA=     0 NBB=     0.
 DE(Corr)= -0.21606320     E(CORR)=     -79.009649188     Delta=-7.22D-03
 NORM(A)=   0.10476222D+01
 Iteration Nr.   3
 **********************
 DD1Dir will call FoFMem   1 times, MxPair=        56
 NAB=    28 NAA=     0 NBB=     0.
 DE(Corr)= -0.21834804     E(CORR)=     -79.011934030     Delta=-2.28D-03
 NORM(A)=   0.10482165D+01
 Iteration Nr.   4
 **********************
 DD1Dir will call FoFMem   1 times, MxPair=        56
 NAB=    28 NAA=     0 NBB=     0.
 DE(Corr)= -0.21876811     E(CORR)=     -79.012354107     Delta=-4.20D-04
 NORM(A)=   0.10482767D+01
 Iteration Nr.   5
 **********************
 DD1Dir will call FoFMem   1 times, MxPair=        56
 NAB=    28 NAA=     0 NBB=     0.
 DE(Corr)= -0.21879454     E(CORR)=     -79.012380530     Delta=-2.64D-05
 NORM(A)=   0.10482764D+01
 Iteration Nr.   6
 **********************
 DD1Dir will call FoFMem   1 times, MxPair=        56
 NAB=    28 NAA=     0 NBB=     0.
 DE(Corr)= -0.21879471     E(CORR)=     -79.012380703     Delta=-1.73D-07
 NORM(A)=   0.10482758D+01
 Iteration Nr.   7
 **********************
 DD1Dir will call FoFMem   1 times, MxPair=        56
 NAB=    28 NAA=     0 NBB=     0.
 DE(Corr)= -0.21879464     E(CORR)=     -79.012380632     Delta= 7.15D-08
 NORM(A)=   0.10482761D+01
 Iteration Nr.   8
 **********************
 DD1Dir will call FoFMem   1 times, MxPair=        56
 NAB=    28 NAA=     0 NBB=     0.
 DE(Corr)= -0.21879476     E(CORR)=     -79.012380754     Delta=-1.22D-07
 NORM(A)=   0.10482760D+01
 Iteration Nr.   9
 **********************
 DD1Dir will call FoFMem   1 times, MxPair=        56
 NAB=    28 NAA=     0 NBB=     0.
 DE(Corr)= -0.21879476     E(CORR)=     -79.012380756     Delta=-2.36D-09
 NORM(A)=   0.10482760D+01
 Iteration Nr.  10
 **********************
 DD1Dir will call FoFMem   1 times, MxPair=        56
 NAB=    28 NAA=     0 NBB=     0.
 DE(Corr)= -0.21879476     E(CORR)=     -79.012380751     Delta= 5.04D-09
 NORM(A)=   0.10482760D+01
 Iteration Nr.  11
 **********************
 DD1Dir will call FoFMem   1 times, MxPair=        56
 NAB=    28 NAA=     0 NBB=     0.
 DE(Corr)= -0.21879475     E(CORR)=     -79.012380747     Delta= 4.43D-09
 NORM(A)=   0.10482760D+01
 Largest amplitude= 5.18D-02

 Z-AMPLITUDE ITERATIONS

 Iteration Nr.   1
 **********************
 DD1Dir will call FoFMem   1 times, MxPair=        56
 NAB=    28 NAA=     0 NBB=     0.
 DE(Z)  -0.21626191D+00          E(Z)=    -0.79009847897D+02
 NORM(A)=   0.10482760D+01
 Iteration Nr.   2
 **********************
 DD1Dir will call FoFMem   1 times, MxPair=        56
 NAB=    28 NAA=     0 NBB=     0.
 DE(Z)  -0.21626194D+00          E(Z)=    -0.79009847935D+02
 NORM(A)=   0.10482762D+01
 Iteration Nr.   3
 **********************
 DD1Dir will call FoFMem   1 times, MxPair=        56
 NAB=    28 NAA=     0 NBB=     0.
 DE(Z)  -0.21626201D+00          E(Z)=    -0.79009848000D+02
 NORM(A)=   0.10482752D+01
 Iteration Nr.   4
 **********************
 DD1Dir will call FoFMem   1 times, MxPair=        56
 NAB=    28 NAA=     0 NBB=     0.
 DE(Z)  -0.21626155D+00          E(Z)=    -0.79009847540D+02
 NORM(A)=   0.10482752D+01
 Iteration Nr.   5
 **********************
 DD1Dir will call FoFMem   1 times, MxPair=        56
 NAB=    28 NAA=     0 NBB=     0.
 DE(Z)  -0.21626152D+00          E(Z)=    -0.79009847516D+02
 NORM(A)=   0.10467381D+01
 Iteration Nr.   6
 **********************
 DD1Dir will call FoFMem   1 times, MxPair=        56
 NAB=    28 NAA=     0 NBB=     0.
 DE(Z)  -0.21551581D+00          E(Z)=    -0.79009101798D+02
 NORM(A)=   0.10466671D+01
 Iteration Nr.   7
 **********************
 DD1Dir will call FoFMem   1 times, MxPair=        56
 NAB=    28 NAA=     0 NBB=     0.
 DE(Z)  -0.21546781D+00          E(Z)=    -0.79009053806D+02
 NORM(A)=   0.10466662D+01
 Iteration Nr.   8
 **********************
 DD1Dir will call FoFMem   1 times, MxPair=        56
 NAB=    28 NAA=     0 NBB=     0.
 DE(Z)  -0.21546775D+00          E(Z)=    -0.79009053737D+02
 NORM(A)=   0.10466673D+01
 Iteration Nr.   9
 **********************
 DD1Dir will call FoFMem   1 times, MxPair=        56
 NAB=    28 NAA=     0 NBB=     0.
 DE(Z)  -0.21546817D+00          E(Z)=    -0.79009054167D+02
 NORM(A)=   0.10466673D+01
 Iteration Nr.  10
 **********************
 DD1Dir will call FoFMem   1 times, MxPair=        56
 NAB=    28 NAA=     0 NBB=     0.
 DE(Z)  -0.21546816D+00          E(Z)=    -0.79009054154D+02
 NORM(A)=   0.10466673D+01
 Iteration Nr.  11
 **********************
 DD1Dir will call FoFMem   1 times, MxPair=        56
 NAB=    28 NAA=     0 NBB=     0.
 DE(Z)  -0.21546817D+00          E(Z)=    -0.79009054157D+02
 NORM(A)=   0.10466673D+01
 Discarding MO integrals.
          IDoAtm=11111111
          Differentiating once with respect to electric field.
                with respect to dipole field.
          Differentiating once with respect to nuclear coordinates.
 Keep R1 ints in memory in symmetry-blocked form, NReq=923085.
          There are     1 degrees of freedom in the 1st order CPHF.  IDoFFX=0 NUNeed=     1.
 LinEq1:  Iter=  0 NonCon=     1 RMS=3.73D-03 Max=2.23D-02 NDo=     1
 AX will form     1 AO Fock derivatives at one time.
 LinEq1:  Iter=  1 NonCon=     1 RMS=1.53D-03 Max=7.84D-03 NDo=     1
 LinEq1:  Iter=  2 NonCon=     1 RMS=1.10D-04 Max=7.08D-04 NDo=     1
 LinEq1:  Iter=  3 NonCon=     1 RMS=7.98D-06 Max=4.10D-05 NDo=     1
 LinEq1:  Iter=  4 NonCon=     1 RMS=4.35D-07 Max=2.44D-06 NDo=     1
 LinEq1:  Iter=  5 NonCon=     1 RMS=2.68D-08 Max=1.57D-07 NDo=     1
 LinEq1:  Iter=  6 NonCon=     1 RMS=1.49D-09 Max=6.46D-09 NDo=     1
 LinEq1:  Iter=  7 NonCon=     0 RMS=9.23D-11 Max=6.12D-10 NDo=     1
 Linear equations converged to 1.000D-10 1.000D-09 after     7 iterations.
 End of Minotr F.D. properties file   721 does not exist.
 End of Minotr F.D. properties file   722 does not exist.
 End of Minotr F.D. properties file   788 does not exist.

 **********************************************************************

            Population analysis using the SCF density.

 **********************************************************************

 Orbital symmetries:
       Occupied  (AU) (AG) (AG) (AU) (AU) (AU) (AG) (AG) (AG)
       Virtual   (AG) (AU) (AU) (AU) (AG) (AG) (AU) (AU) (AU) (AG)
                 (AU) (AG) (AG) (AG) (AG) (AG) (AU) (AU) (AU) (AG)
                 (AU)
 The electronic state is 1-AG.
 Alpha  occ. eigenvalues --  -11.15460 -11.15437  -1.01891  -0.84098  -0.59906
 Alpha  occ. eigenvalues --   -0.59906  -0.50181  -0.48455  -0.48455
 Alpha virt. eigenvalues --    0.27667   0.33739   0.33739   0.34225   0.36824
 Alpha virt. eigenvalues --    0.36824   0.42486   0.91196   0.91196   0.96933
 Alpha virt. eigenvalues --    1.07515   1.08736   1.08737   1.27972   1.36409
 Alpha virt. eigenvalues --    1.36409   1.36428   1.36428   1.44205   1.93791
 Alpha virt. eigenvalues --    2.29961
          Condensed to atoms (all electrons):
               1          2          3          4          5          6
     1  C    5.352366   0.239102   0.378272   0.378272   0.378271  -0.043618
     2  C    0.239102   5.352366  -0.043617  -0.043617  -0.043618   0.378271
     3  H    0.378272  -0.043617   0.520122  -0.026278  -0.026278  -0.001835
     4  H    0.378272  -0.043617  -0.026278   0.520123  -0.026278  -0.001835
     5  H    0.378271  -0.043618  -0.026278  -0.026278   0.520122   0.002973
     6  H   -0.043618   0.378271  -0.001835  -0.001835   0.002973   0.520122
     7  H   -0.043617   0.378272  -0.001835   0.002973  -0.001835  -0.026278
     8  H   -0.043617   0.378272   0.002973  -0.001835  -0.001835  -0.026278
               7          8
     1  C   -0.043617  -0.043617
     2  C    0.378272   0.378272
     3  H   -0.001835   0.002973
     4  H    0.002973  -0.001835
     5  H   -0.001835  -0.001835
     6  H   -0.026278  -0.026278
     7  H    0.520123  -0.026278
     8  H   -0.026278   0.520122
 Mulliken charges:
               1
     1  C   -0.595430
     2  C   -0.595430
     3  H    0.198476
     4  H    0.198476
     5  H    0.198478
     6  H    0.198478
     7  H    0.198476
     8  H    0.198476
 Sum of Mulliken charges =   0.00000
 Mulliken charges with hydrogens summed into heavy atoms:
               1
     1  C    0.000000
     2  C    0.000000
 Electronic spatial extent (au):  <R**2>=            110.0593
 Charge=              0.0000 electrons
 Dipole moment (field-independent basis, Debye):
    X=              0.0000    Y=              0.0000    Z=              0.0000  Tot=              0.0000
 Quadrupole moment (field-independent basis, Debye-Ang):
   XX=            -15.6646   YY=            -15.0386   ZZ=            -15.0369
   XY=              0.0325   XZ=              0.0000   YZ=              0.0000
 Traceless Quadrupole moment (field-independent basis, Debye-Ang):
   XX=             -0.4179   YY=              0.2081   ZZ=              0.2098
   XY=              0.0325   XZ=              0.0000   YZ=              0.0000
 Octapole moment (field-independent basis, Debye-Ang**2):
  XXX=              0.0000  YYY=              0.0000  ZZZ=              0.0000  XYY=              0.0000
  XXY=              0.0000  XXZ=              0.0000  XZZ=              0.0000  YZZ=              0.0000
  YYZ=              0.0000  XYZ=              0.0000
 Hexadecapole moment (field-independent basis, Debye-Ang**3):
 XXXX=            -92.8860 YYYY=            -28.5263 ZZZZ=            -28.1213 XXXY=              1.8752
 XXXZ=              0.0063 YYYX=              2.6906 YYYZ=             -0.1210 ZZZX=             -0.7818
 ZZZY=              0.0404 XXYY=            -18.8615 XXZZ=            -19.0675 YYZZ=             -9.2734
 XXYZ=              0.0806 YYXZ=              0.7756 ZZXY=             -0.7196
 N-N= 4.216957700541D+01 E-N=-2.668396166978D+02  KE= 7.858904402973D+01
 Symmetry AG   KE= 4.076384570807D+01
 Symmetry AU   KE= 3.782519832166D+01
 Calling FoFJK, ICntrl=  10002127 FMM=F ISym2X=1 I1Cent= 0 IOpClX= 0 NMat=1 NMatS=1 NMatT=0.
 ***** Axes restored to original set *****
 -------------------------------------------------------------------
 Center     Atomic                   Forces (Hartrees/Bohr)
 Number     Number              X              Y              Z
 -------------------------------------------------------------------
      1        6          -0.003376395    0.000173432    0.000000695
      2        6           0.003376395   -0.000173432   -0.000000695
      3        1          -0.002815720    0.001393971    0.003598717
      4        1          -0.003073484   -0.003585323   -0.000719281
      5        1          -0.002752500    0.002639772   -0.002880772
      6        1           0.002752500   -0.002639772    0.002880772
      7        1           0.003073484    0.003585323    0.000719281
      8        1           0.002815720   -0.001393971   -0.003598717
 -------------------------------------------------------------------
 Cartesian Forces:  Max     0.003598717 RMS     0.002580601

 GradGradGradGradGradGradGradGradGradGradGradGradGradGradGradGradGradGrad
 Berny optimization.
 FormGI is forming the generalized inverse of G from B-inverse, IUseBI=4.
 Internal  Forces:  Max     0.012034177 RMS     0.003239359
 Search for a local minimum.
 Step number   1 out of a maximum of   38
 All quantities printed in internal units (Hartrees-Bohrs-Radians)
 Mixed Optimization -- RFO/linear search
 Second derivative matrix not updated -- first step.
 ITU=  0
     Eigenvalues ---    0.00280   0.05575   0.05575   0.05575   0.05575
     Eigenvalues ---    0.16000   0.16000   0.16000   0.16000   0.16000
     Eigenvalues ---    0.16000   0.28809   0.34549   0.34549   0.34549
     Eigenvalues ---    0.34549   0.34550   0.34550
 RFO step:  Lambda=-1.00866337D-03 EMin= 2.79920382D-03
 Linear search not attempted -- first point.
 Iteration  1 RMS(Cart)=  0.02036443 RMS(Int)=  0.00004146
 Iteration  2 RMS(Cart)=  0.00004345 RMS(Int)=  0.00002344
 Iteration  3 RMS(Cart)=  0.00000000 RMS(Int)=  0.00002344
 ClnCor:  largest displacement from symmetrization is 1.10D-08 for atom     8.
 Variable       Old X    -DE/DX   Delta X   Delta X   Delta X     New X
                                 (Linear)    (Quad)   (Total)
    R1        2.90402   0.01203   0.00000   0.04163   0.04163   2.94565
    R2        2.06413   0.00458   0.00000   0.01320   0.01320   2.07733
    R3        2.06413   0.00457   0.00000   0.01320   0.01320   2.07733
    R4        2.06412   0.00458   0.00000   0.01321   0.01321   2.07733
    R5        2.06412   0.00458   0.00000   0.01321   0.01321   2.07733
    R6        2.06413   0.00457   0.00000   0.01320   0.01320   2.07733
    R7        2.06413   0.00458   0.00000   0.01320   0.01320   2.07733
    A1        1.92691   0.00137   0.00000   0.00852   0.00848   1.93540
    A2        1.92691   0.00137   0.00000   0.00852   0.00849   1.93540
    A3        1.92691   0.00137   0.00000   0.00853   0.00849   1.93540
    A4        1.89408  -0.00142   0.00000  -0.00881  -0.00885   1.88523
    A5        1.89407  -0.00142   0.00000  -0.00881  -0.00884   1.88523
    A6        1.89408  -0.00142   0.00000  -0.00881  -0.00885   1.88523
    A7        1.92691   0.00137   0.00000   0.00853   0.00849   1.93540
    A8        1.92691   0.00137   0.00000   0.00852   0.00849   1.93540
    A9        1.92691   0.00137   0.00000   0.00852   0.00848   1.93540
   A10        1.89408  -0.00142   0.00000  -0.00881  -0.00885   1.88523
   A11        1.89407  -0.00142   0.00000  -0.00881  -0.00884   1.88523
   A12        1.89408  -0.00142   0.00000  -0.00881  -0.00885   1.88523
    D1        1.04720   0.00000   0.00000   0.00000   0.00000   1.04720
    D2       -1.04719   0.00000   0.00000   0.00000   0.00000  -1.04720
    D3        3.14159   0.00000   0.00000   0.00000   0.00000   3.14159
    D4       -1.04720   0.00000   0.00000   0.00000   0.00000  -1.04720
    D5        3.14159   0.00000   0.00000   0.00000   0.00000   3.14159
    D6        1.04719   0.00000   0.00000   0.00000   0.00000   1.04720
    D7        3.14159   0.00000   0.00000   0.00000   0.00000   3.14159
    D8        1.04720   0.00000   0.00000   0.00000   0.00000   1.04720
    D9       -1.04720   0.00000   0.00000   0.00000   0.00000  -1.04720
         Item               Value     Threshold  Converged?
 Maximum Force            0.012034     0.000450     NO 
 RMS     Force            0.003239     0.000300     NO 
 Maximum Displacement     0.042170     0.001800     NO 
 RMS     Displacement     0.020385     0.001200     NO 
 Predicted change in Energy=-5.061867D-04
 GradGradGradGradGradGradGradGradGradGradGradGradGradGradGradGradGradGrad

                          Input orientation:                          
 ---------------------------------------------------------------------
 Center     Atomic      Atomic             Coordinates (Angstroms)
 Number     Number       Type             X           Y           Z
 ---------------------------------------------------------------------
      1          6           0       -6.398699    0.651579   -0.000001
      2          6           0       -4.842011    0.571051    0.000001
      3          1           0       -6.772783    1.007630    0.970410
      4          1           0       -6.842256   -0.335349   -0.194006
      5          1           0       -6.755423    1.343207   -0.776407
      6          1           0       -4.485287   -0.120577    0.776407
      7          1           0       -4.398454    1.557979    0.194006
      8          1           0       -4.467927    0.215000   -0.970410
 ---------------------------------------------------------------------
                    Distance matrix (angstroms):
                    1          2          3          4          5
     1  C    0.000000
     2  C    1.558770   0.000000
     3  H    1.099276   2.204581   0.000000
     4  H    1.099276   2.204581   1.778843   0.000000
     5  H    1.099276   2.204582   1.778843   1.778843   0.000000
     6  H    2.204582   1.099276   2.557954   2.557954   3.115673
     7  H    2.204581   1.099276   2.557953   3.115671   2.557954
     8  H    2.204581   1.099276   3.115671   2.557953   2.557954
                    6          7          8
     6  H    0.000000
     7  H    1.778843   0.000000
     8  H    1.778843   1.778843   0.000000
 Stoichiometry    C2H6
 Framework group  CI[X(C2H6)]
 Deg. of freedom     9
 Full point group                 CI      NOp   2
 Largest Abelian subgroup         CI      NOp   2
 Largest concise Abelian subgroup CI      NOp   2
                         Standard orientation:                         
 ---------------------------------------------------------------------
 Center     Atomic      Atomic             Coordinates (Angstroms)
 Number     Number       Type             X           Y           Z
 ---------------------------------------------------------------------
      1          6           0       -0.778344    0.040264   -0.000001
      2          6           0        0.778344   -0.040264    0.000001
      3          1           0       -1.152428    0.396315    0.970410
      4          1           0       -1.221901   -0.946664   -0.194006
      5          1           0       -1.135068    0.731892   -0.776407
      6          1           0        1.135068   -0.731892    0.776407
      7          1           0        1.221901    0.946664    0.194006
      8          1           0        1.152428   -0.396315   -0.970410
 ---------------------------------------------------------------------
 Rotational constants (GHZ):     79.2367794     19.3894884     19.3894865
 Standard basis: 3-21G (6D, 7F)
 There are    15 symmetry adapted cartesian basis functions of AG  symmetry.
 There are    15 symmetry adapted cartesian basis functions of AU  symmetry.
 There are    15 symmetry adapted basis functions of AG  symmetry.
 There are    15 symmetry adapted basis functions of AU  symmetry.
    30 basis functions,    48 primitive gaussians,    30 cartesian basis functions
     9 alpha electrons        9 beta electrons
       nuclear repulsion energy        41.7283081024 Hartrees.
 NAtoms=    8 NActive=    8 NUniq=    4 SFac= 4.00D+00 NAtFMM=   60 NAOKFM=F Big=F
 Integral buffers will be    131072 words long.
 Raffenetti 1 integral format.
 Two-electron integral symmetry is turned on.
 One-electron integrals computed using PRISM.
 NBasis=    30 RedAO= T EigKep=  1.42D-02  NBF=    15    15
 NBsUse=    30 1.00D-06 EigRej= -1.00D+00 NBFU=    15    15
 Initial guess from the checkpoint file:  "/scr/Gau-16175.chk"
 B after Tr=     0.000000    0.000000    0.000000
         Rot=    1.000000    0.000000    0.000000    0.000000 Ang=   0.00 deg.
 Initial guess orbital symmetries:
       Occupied  (AU) (AG) (AG) (AU) (AU) (AU) (AG) (AG) (AG)
       Virtual   (AG) (AG) (AG) (AG) (AG) (AG) (AG) (AG) (AG) (AG)
                 (AU) (AU) (AU) (AU) (AU) (AU) (AU) (AU) (AU) (AU)
                 (AU)
 ExpMin= 1.83D-01 ExpMax= 1.72D+02 ExpMxC= 1.72D+02 IAcc=1 IRadAn=         1 AccDes= 0.00D+00
 Harris functional with IExCor=  205 and IRadAn=       1 diagonalized for initial guess.
 HarFok:  IExCor=  205 AccDes= 0.00D+00 IRadAn=         1 IDoV= 1 UseB2=F ITyADJ=14
 ICtDFT=  3500011 ScaDFX=  1.000000  1.000000  1.000000  1.000000
 FoFCou: FMM=F IPFlag=           0 FMFlag=      100000 FMFlg1=           0
         NFxFlg=           0 DoJE=T BraDBF=F KetDBF=T FulRan=T
         wScrn=  0.000000 ICntrl=     500 IOpCl=  0 I1Cent=   200000004 NGrid=           0
         NMat0=    1 NMatS0=      1 NMatT0=    0 NMatD0=    1 NMtDS0=    0 NMtDT0=    0
 Petite list used in FoFCou.
 Keep R1 ints in memory in symmetry-blocked form, NReq=940922.
 Requested convergence on RMS density matrix=1.00D-08 within 128 cycles.
 Requested convergence on MAX density matrix=1.00D-06.
 Requested convergence on             energy=1.00D-06.
 No special actions if energy rises.
 SCF Done:  E(RHF) =  -78.7928671799     A.U. after    7 cycles
            NFock=  7  Conv=0.99D-08     -V/T= 2.0039
 ExpMin= 1.83D-01 ExpMax= 1.72D+02 ExpMxC= 1.72D+02 IAcc=3 IRadAn=         5 AccDes= 0.00D+00
 HarFok:  IExCor=  205 AccDes= 0.00D+00 IRadAn=         5 IDoV=-2 UseB2=F ITyADJ=14
 ICtDFT= 12500011 ScaDFX=  1.000000  1.000000  1.000000  1.000000
 Range of M.O.s used for correlation:     3    30
 NBasis=    30 NAE=     9 NBE=     9 NFC=     2 NFV=     0
 NROrb=     28 NOA=     7 NOB=     7 NVA=    21 NVB=    21
 Semi-Direct transformation.
 ModeAB=           4 MOrb=             7 LenV=      33431936
 LASXX=        30133 LTotXX=       30133 LenRXX=       63623
 LTotAB=       33490 MaxLAS=       51744 LenRXY=           0
 NonZer=       93756 LenScr=      785920 LnRSAI=       51744
 LnScr1=      785920 LExtra=           0 Total=      1687207
 MaxDsk=          -1 SrtSym=           T ITran=            4
 JobTyp=0 Pass  1:  I=   1 to   7.
 (rs|ai) integrals will be sorted in core.
 Spin components of T(2) and E(2):
     alpha-alpha T2 =       0.6390252771D-02 E2=     -0.1748163317D-01
     alpha-beta  T2 =       0.5621618230D-01 E2=     -0.1540971634D+00
     beta-beta   T2 =       0.6390252771D-02 E2=     -0.1748163317D-01
 ANorm=    0.1033922960D+01
 E2 =    -0.1890604297D+00 EUMP2 =    -0.78981927609555D+02
 Keep R2 and R3 ints in memory in symmetry-blocked form, NReq=911104.
 Iterations=  50 Convergence= 0.100D-07
 Iteration Nr.   1
 **********************
 DD1Dir will call FoFMem   1 times, MxPair=        56
 NAB=    28 NAA=     0 NBB=     0.
 MP4(R+Q)=  0.12592871D-02
 E3=       -0.21984557D-01        EUMP3=      -0.79003912166D+02
 E4(DQ)=   -0.57284818D-02        UMP4(DQ)=   -0.79009640648D+02
 E4(SDQ)=  -0.65292101D-02        UMP4(SDQ)=  -0.79010441377D+02
 DE(Corr)= -0.20971572     E(Corr)=     -79.002582896    
 NORM(A)=   0.10442775D+01
 Iteration Nr.   2
 **********************
 DD1Dir will call FoFMem   1 times, MxPair=        56
 NAB=    28 NAA=     0 NBB=     0.
 DE(Corr)= -0.21710343     E(CORR)=     -79.009970609     Delta=-7.39D-03
 NORM(A)=   0.10484252D+01
 Iteration Nr.   3
 **********************
 DD1Dir will call FoFMem   1 times, MxPair=        56
 NAB=    28 NAA=     0 NBB=     0.
 DE(Corr)= -0.21946595     E(CORR)=     -79.012333127     Delta=-2.36D-03
 NORM(A)=   0.10490598D+01
 Iteration Nr.   4
 **********************
 DD1Dir will call FoFMem   1 times, MxPair=        56
 NAB=    28 NAA=     0 NBB=     0.
 DE(Corr)= -0.21991111     E(CORR)=     -79.012778291     Delta=-4.45D-04
 NORM(A)=   0.10491252D+01
 Iteration Nr.   5
 **********************
 DD1Dir will call FoFMem   1 times, MxPair=        56
 NAB=    28 NAA=     0 NBB=     0.
 DE(Corr)= -0.21993971     E(CORR)=     -79.012806891     Delta=-2.86D-05
 NORM(A)=   0.10491248D+01
 Iteration Nr.   6
 **********************
 DD1Dir will call FoFMem   1 times, MxPair=        56
 NAB=    28 NAA=     0 NBB=     0.
 DE(Corr)= -0.21993991     E(CORR)=     -79.012807089     Delta=-1.98D-07
 NORM(A)=   0.10491242D+01
 Iteration Nr.   7
 **********************
 DD1Dir will call FoFMem   1 times, MxPair=        56
 NAB=    28 NAA=     0 NBB=     0.
 DE(Corr)= -0.21993983     E(CORR)=     -79.012807012     Delta= 7.72D-08
 NORM(A)=   0.10491244D+01
 Iteration Nr.   8
 **********************
 DD1Dir will call FoFMem   1 times, MxPair=        56
 NAB=    28 NAA=     0 NBB=     0.
 DE(Corr)= -0.21993996     E(CORR)=     -79.012807143     Delta=-1.31D-07
 NORM(A)=   0.10491244D+01
 Iteration Nr.   9
 **********************
 DD1Dir will call FoFMem   1 times, MxPair=        56
 NAB=    28 NAA=     0 NBB=     0.
 DE(Corr)= -0.21993997     E(CORR)=     -79.012807148     Delta=-5.26D-09
 NORM(A)=   0.10491244D+01
 Iteration Nr.  10
 **********************
 DD1Dir will call FoFMem   1 times, MxPair=        56
 NAB=    28 NAA=     0 NBB=     0.
 DE(Corr)= -0.21993996     E(CORR)=     -79.012807143     Delta= 4.35D-09
 NORM(A)=   0.10491244D+01
 Iteration Nr.  11
 **********************
 DD1Dir will call FoFMem   1 times, MxPair=        56
 NAB=    28 NAA=     0 NBB=     0.
 DE(Corr)= -0.21993996     E(CORR)=     -79.012807139     Delta= 4.50D-09
 NORM(A)=   0.10491244D+01
 Largest amplitude= 5.37D-02

 Z-AMPLITUDE ITERATIONS

 Iteration Nr.   1
 **********************
 DD1Dir will call FoFMem   1 times, MxPair=        56
 NAB=    28 NAA=     0 NBB=     0.
 DE(Z)  -0.21734563D+00          E(Z)=    -0.79010212813D+02
 NORM(A)=   0.10491245D+01
 Iteration Nr.   2
 **********************
 DD1Dir will call FoFMem   1 times, MxPair=        56
 NAB=    28 NAA=     0 NBB=     0.
 DE(Z)  -0.21734570D+00          E(Z)=    -0.79010212880D+02
 NORM(A)=   0.10491246D+01
 Iteration Nr.   3
 **********************
 DD1Dir will call FoFMem   1 times, MxPair=        56
 NAB=    28 NAA=     0 NBB=     0.
 DE(Z)  -0.21734575D+00          E(Z)=    -0.79010212926D+02
 NORM(A)=   0.10491236D+01
 Iteration Nr.   4
 **********************
 DD1Dir will call FoFMem   1 times, MxPair=        56
 NAB=    28 NAA=     0 NBB=     0.
 DE(Z)  -0.21734529D+00          E(Z)=    -0.79010212470D+02
 NORM(A)=   0.10491244D+01
 Iteration Nr.   5
 **********************
 DD1Dir will call FoFMem   1 times, MxPair=        56
 NAB=    28 NAA=     0 NBB=     0.
 DE(Z)  -0.21734566D+00          E(Z)=    -0.79010212845D+02
 NORM(A)=   0.10474456D+01
 Iteration Nr.   6
 **********************
 DD1Dir will call FoFMem   1 times, MxPair=        56
 NAB=    28 NAA=     0 NBB=     0.
 DE(Z)  -0.21651341D+00          E(Z)=    -0.79009380587D+02
 NORM(A)=   0.10474471D+01
 Iteration Nr.   7
 **********************
 DD1Dir will call FoFMem   1 times, MxPair=        56
 NAB=    28 NAA=     0 NBB=     0.
 DE(Z)  -0.21651431D+00          E(Z)=    -0.79009381487D+02
 NORM(A)=   0.10474473D+01
 Iteration Nr.   8
 **********************
 DD1Dir will call FoFMem   1 times, MxPair=        56
 NAB=    28 NAA=     0 NBB=     0.
 DE(Z)  -0.21651449D+00          E(Z)=    -0.79009381674D+02
 NORM(A)=   0.10474474D+01
 Iteration Nr.   9
 **********************
 DD1Dir will call FoFMem   1 times, MxPair=        56
 NAB=    28 NAA=     0 NBB=     0.
 DE(Z)  -0.21651452D+00          E(Z)=    -0.79009381696D+02
 NORM(A)=   0.10474474D+01
 Iteration Nr.  10
 **********************
 DD1Dir will call FoFMem   1 times, MxPair=        56
 NAB=    28 NAA=     0 NBB=     0.
 DE(Z)  -0.21651452D+00          E(Z)=    -0.79009381699D+02
 NORM(A)=   0.10474474D+01
 Discarding MO integrals.
          IDoAtm=11111111
          Differentiating once with respect to electric field.
                with respect to dipole field.
          Differentiating once with respect to nuclear coordinates.
 Keep R1 ints in memory in symmetry-blocked form, NReq=923085.
          There are     1 degrees of freedom in the 1st order CPHF.  IDoFFX=0 NUNeed=     1.
 LinEq1:  Iter=  0 NonCon=     1 RMS=3.87D-03 Max=2.42D-02 NDo=     1
 AX will form     1 AO Fock derivatives at one time.
 LinEq1:  Iter=  1 NonCon=     1 RMS=1.59D-03 Max=9.83D-03 NDo=     1
 LinEq1:  Iter=  2 NonCon=     1 RMS=1.12D-04 Max=7.32D-04 NDo=     1
 LinEq1:  Iter=  3 NonCon=     1 RMS=8.16D-06 Max=4.17D-05 NDo=     1
 LinEq1:  Iter=  4 NonCon=     1 RMS=4.48D-07 Max=2.81D-06 NDo=     1
 LinEq1:  Iter=  5 NonCon=     1 RMS=2.83D-08 Max=1.63D-07 NDo=     1
 LinEq1:  Iter=  6 NonCon=     1 RMS=1.66D-09 Max=7.60D-09 NDo=     1
 LinEq1:  Iter=  7 NonCon=     0 RMS=9.39D-11 Max=6.88D-10 NDo=     1
 Linear equations converged to 1.000D-10 1.000D-09 after     7 iterations.
 End of Minotr F.D. properties file   721 does not exist.
 End of Minotr F.D. properties file   722 does not exist.
 End of Minotr F.D. properties file   788 does not exist.
 Calling FoFJK, ICntrl=  10002127 FMM=F ISym2X=1 I1Cent= 0 IOpClX= 0 NMat=1 NMatS=1 NMatT=0.
 ***** Axes restored to original set *****
 -------------------------------------------------------------------
 Center     Atomic                   Forces (Hartrees/Bohr)
 Number     Number              X              Y              Z
 -------------------------------------------------------------------
      1        6          -0.000041927    0.000002033    0.000000316
      2        6           0.000041927   -0.000002033   -0.000000316
      3        1           0.000593517    0.000032501    0.000182029
      4        1           0.000580532   -0.000219487   -0.000036450
      5        1           0.000596990    0.000095375   -0.000145634
      6        1          -0.000596990   -0.000095375    0.000145634
      7        1          -0.000580532    0.000219487    0.000036450
      8        1          -0.000593517   -0.000032501   -0.000182029
 -------------------------------------------------------------------
 Cartesian Forces:  Max     0.000596990 RMS     0.000311105

 GradGradGradGradGradGradGradGradGradGradGradGradGradGradGradGradGradGrad
 Berny optimization.
 Using GEDIIS/GDIIS optimizer.
 FormGI is forming the generalized inverse of G from B-inverse, IUseBI=4.
 Internal  Forces:  Max     0.001731431 RMS     0.000526029
 Search for a local minimum.
 Step number   2 out of a maximum of   38
 All quantities printed in internal units (Hartrees-Bohrs-Radians)
 Mixed Optimization -- En-DIIS/RFO-DIIS
 Update second derivatives using D2CorX and points    1    2
 DE= -4.26D-04 DEPred=-5.06D-04 R= 8.42D-01
 TightC=F SS=  1.41D+00  RLast= 6.07D-02 DXNew= 5.0454D-01 1.8201D-01
 Trust test= 8.42D-01 RLast= 6.07D-02 DXMaxT set to 3.00D-01
 ITU=  1  0
 Use linear search instead of GDIIS.
     Eigenvalues ---    0.00280   0.05486   0.05486   0.05486   0.05486
     Eigenvalues ---    0.16000   0.16000   0.16000   0.16000   0.16000
     Eigenvalues ---    0.17320   0.31405   0.33464   0.34549   0.34549
     Eigenvalues ---    0.34549   0.34550   0.34550
 RFO step:  Lambda=-1.60664275D-05 EMin= 2.79920382D-03
 Quartic linear search produced a step of -0.12640.
 Iteration  1 RMS(Cart)=  0.00425013 RMS(Int)=  0.00000638
 Iteration  2 RMS(Cart)=  0.00000742 RMS(Int)=  0.00000053
 Iteration  3 RMS(Cart)=  0.00000000 RMS(Int)=  0.00000053
 ClnCor:  largest displacement from symmetrization is 3.85D-09 for atom     8.
 Variable       Old X    -DE/DX   Delta X   Delta X   Delta X     New X
                                 (Linear)    (Quad)   (Total)
    R1        2.94565  -0.00173  -0.00526   0.00049  -0.00477   2.94087
    R2        2.07733  -0.00003  -0.00167   0.00175   0.00008   2.07741
    R3        2.07733  -0.00003  -0.00167   0.00175   0.00008   2.07741
    R4        2.07733  -0.00003  -0.00167   0.00175   0.00008   2.07741
    R5        2.07733  -0.00003  -0.00167   0.00175   0.00008   2.07741
    R6        2.07733  -0.00003  -0.00167   0.00175   0.00008   2.07741
    R7        2.07733  -0.00003  -0.00167   0.00175   0.00008   2.07741
    A1        1.93540  -0.00061  -0.00107  -0.00221  -0.00328   1.93211
    A2        1.93540  -0.00061  -0.00107  -0.00221  -0.00329   1.93211
    A3        1.93540  -0.00061  -0.00107  -0.00221  -0.00329   1.93211
    A4        1.88523   0.00064   0.00112   0.00233   0.00344   1.88867
    A5        1.88523   0.00064   0.00112   0.00233   0.00344   1.88867
    A6        1.88523   0.00064   0.00112   0.00232   0.00344   1.88867
    A7        1.93540  -0.00061  -0.00107  -0.00221  -0.00329   1.93211
    A8        1.93540  -0.00061  -0.00107  -0.00221  -0.00329   1.93211
    A9        1.93540  -0.00061  -0.00107  -0.00221  -0.00328   1.93211
   A10        1.88523   0.00064   0.00112   0.00232   0.00344   1.88867
   A11        1.88523   0.00064   0.00112   0.00233   0.00344   1.88867
   A12        1.88523   0.00064   0.00112   0.00233   0.00344   1.88867
    D1        1.04720   0.00000   0.00000   0.00000   0.00000   1.04720
    D2       -1.04720   0.00000   0.00000   0.00000   0.00000  -1.04720
    D3        3.14159   0.00000   0.00000   0.00000   0.00000   3.14159
    D4       -1.04720   0.00000   0.00000   0.00000   0.00000  -1.04720
    D5        3.14159   0.00000   0.00000   0.00000   0.00000   3.14159
    D6        1.04720   0.00000   0.00000   0.00000   0.00000   1.04720
    D7        3.14159   0.00000   0.00000   0.00000   0.00000   3.14159
    D8        1.04720   0.00000   0.00000   0.00000   0.00000   1.04720
    D9       -1.04720   0.00000   0.00000   0.00000   0.00000  -1.04720
         Item               Value     Threshold  Converged?
 Maximum Force            0.001731     0.000450     NO 
 RMS     Force            0.000526     0.000300     NO 
 Maximum Displacement     0.008813     0.001800     NO 
 RMS     Displacement     0.004256     0.001200     NO 
 Predicted change in Energy=-1.643392D-05
 GradGradGradGradGradGradGradGradGradGradGradGradGradGradGradGradGradGrad

                          Input orientation:                          
 ---------------------------------------------------------------------
 Center     Atomic      Atomic             Coordinates (Angstroms)
 Number     Number       Type             X           Y           Z
 ---------------------------------------------------------------------
      1          6           0       -6.397438    0.651514   -0.000001
      2          6           0       -4.843272    0.571116    0.000001
      3          1           0       -6.768143    1.007824    0.971660
      4          1           0       -6.837705   -0.336886   -0.194256
      5          1           0       -6.750760    1.343834   -0.777408
      6          1           0       -4.489950   -0.121204    0.777408
      7          1           0       -4.403005    1.559516    0.194256
      8          1           0       -4.472567    0.214806   -0.971660
 ---------------------------------------------------------------------
                    Distance matrix (angstroms):
                    1          2          3          4          5
     1  C    0.000000
     2  C    1.556243   0.000000
     3  H    1.099320   2.199992   0.000000
     4  H    1.099320   2.199992   1.781135   0.000000
     5  H    1.099320   2.199991   1.781135   1.781135   0.000000
     6  H    2.199991   1.099320   2.550019   2.550019   3.110473
     7  H    2.199992   1.099320   2.550020   3.110473   2.550019
     8  H    2.199992   1.099320   3.110473   2.550020   2.550019
                    6          7          8
     6  H    0.000000
     7  H    1.781135   0.000000
     8  H    1.781135   1.781135   0.000000
 This structure is nearly, but not quite of a higher symmetry.
 Consider Symm=Loose if the higher symmetry is desired.
 Stoichiometry    C2H6
 Framework group  CI[X(C2H6)]
 Deg. of freedom     9
 Full point group                 CI      NOp   2
 Largest Abelian subgroup         CI      NOp   2
 Largest concise Abelian subgroup CI      NOp   2
                         Standard orientation:                         
 ---------------------------------------------------------------------
 Center     Atomic      Atomic             Coordinates (Angstroms)
 Number     Number       Type             X           Y           Z
 ---------------------------------------------------------------------
      1          6           0       -0.777083    0.040199   -0.000001
      2          6           0        0.777083   -0.040199    0.000001
      3          1           0       -1.147788    0.396509    0.971660
      4          1           0       -1.217350   -0.948201   -0.194256
      5          1           0       -1.130405    0.732519   -0.777408
      6          1           0        1.130405   -0.732519    0.777408
      7          1           0        1.217350    0.948201    0.194256
      8          1           0        1.147788   -0.396509   -0.971660
 ---------------------------------------------------------------------
 Rotational constants (GHZ):     79.0329472     19.4674442     19.4674441
 Standard basis: 3-21G (6D, 7F)
 There are    15 symmetry adapted cartesian basis functions of AG  symmetry.
 There are    15 symmetry adapted cartesian basis functions of AU  symmetry.
 There are    15 symmetry adapted basis functions of AG  symmetry.
 There are    15 symmetry adapted basis functions of AU  symmetry.
    30 basis functions,    48 primitive gaussians,    30 cartesian basis functions
     9 alpha electrons        9 beta electrons
       nuclear repulsion energy        41.7678995840 Hartrees.
 NAtoms=    8 NActive=    8 NUniq=    4 SFac= 4.00D+00 NAtFMM=   60 NAOKFM=F Big=F
 Integral buffers will be    131072 words long.
 Raffenetti 1 integral format.
 Two-electron integral symmetry is turned on.
 One-electron integrals computed using PRISM.
 NBasis=    30 RedAO= T EigKep=  1.41D-02  NBF=    15    15
 NBsUse=    30 1.00D-06 EigRej= -1.00D+00 NBFU=    15    15
 Initial guess from the checkpoint file:  "/scr/Gau-16175.chk"
 B after Tr=     0.000000    0.000000    0.000000
         Rot=    1.000000    0.000000    0.000000    0.000000 Ang=   0.00 deg.
 Initial guess orbital symmetries:
       Occupied  (AU) (AG) (AG) (AU) (AU) (AU) (AG) (AG) (AG)
       Virtual   (AG) (AG) (AG) (AG) (AG) (AG) (AG) (AG) (AG) (AG)
                 (AU) (AU) (AU) (AU) (AU) (AU) (AU) (AU) (AU) (AU)
                 (AU)
 Keep R1 ints in memory in symmetry-blocked form, NReq=940922.
 Requested convergence on RMS density matrix=1.00D-08 within 128 cycles.
 Requested convergence on MAX density matrix=1.00D-06.
 Requested convergence on             energy=1.00D-06.
 No special actions if energy rises.
 SCF Done:  E(RHF) =  -78.7929128876     A.U. after    7 cycles
            NFock=  7  Conv=0.13D-08     -V/T= 2.0038
 ExpMin= 1.83D-01 ExpMax= 1.72D+02 ExpMxC= 1.72D+02 IAcc=3 IRadAn=         5 AccDes= 0.00D+00
 HarFok:  IExCor=  205 AccDes= 0.00D+00 IRadAn=         5 IDoV=-2 UseB2=F ITyADJ=14
 ICtDFT= 12500011 ScaDFX=  1.000000  1.000000  1.000000  1.000000
 Range of M.O.s used for correlation:     3    30
 NBasis=    30 NAE=     9 NBE=     9 NFC=     2 NFV=     0
 NROrb=     28 NOA=     7 NOB=     7 NVA=    21 NVB=    21
 Semi-Direct transformation.
 ModeAB=           4 MOrb=             7 LenV=      33431936
 LASXX=        30133 LTotXX=       30133 LenRXX=       63623
 LTotAB=       33490 MaxLAS=       51744 LenRXY=           0
 NonZer=       93756 LenScr=      785920 LnRSAI=       51744
 LnScr1=      785920 LExtra=           0 Total=      1687207
 MaxDsk=          -1 SrtSym=           T ITran=            4
 JobTyp=0 Pass  1:  I=   1 to   7.
 (rs|ai) integrals will be sorted in core.
 Spin components of T(2) and E(2):
     alpha-alpha T2 =       0.6389538179D-02 E2=     -0.1748654034D-01
     alpha-beta  T2 =       0.5618449388D-01 E2=     -0.1540742282D+00
     beta-beta   T2 =       0.6389538179D-02 E2=     -0.1748654034D-01
 ANorm=    0.1033906945D+01
 E2 =    -0.1890473089D+00 EUMP2 =    -0.78981960196491D+02
 Keep R2 and R3 ints in memory in symmetry-blocked form, NReq=911104.
 Iterations=  50 Convergence= 0.100D-07
 Iteration Nr.   1
 **********************
 DD1Dir will call FoFMem   1 times, MxPair=        56
 NAB=    28 NAA=     0 NBB=     0.
 MP4(R+Q)=  0.12595301D-02
 E3=       -0.21981394D-01        EUMP3=      -0.79003941591D+02
 E4(DQ)=   -0.57228163D-02        UMP4(DQ)=   -0.79009664407D+02
 E4(SDQ)=  -0.65195426D-02        UMP4(SDQ)=  -0.79010461133D+02
 DE(Corr)= -0.20969953     E(Corr)=     -79.002612413    
 NORM(A)=   0.10442532D+01
 Iteration Nr.   2
 **********************
 DD1Dir will call FoFMem   1 times, MxPair=        56
 NAB=    28 NAA=     0 NBB=     0.
 DE(Corr)= -0.21707873     E(CORR)=     -79.009991622     Delta=-7.38D-03
 NORM(A)=   0.10483931D+01
 Iteration Nr.   3
 **********************
 DD1Dir will call FoFMem   1 times, MxPair=        56
 NAB=    28 NAA=     0 NBB=     0.
 DE(Corr)= -0.21943810     E(CORR)=     -79.012350988     Delta=-2.36D-03
 NORM(A)=   0.10490255D+01
 Iteration Nr.   4
 **********************
 DD1Dir will call FoFMem   1 times, MxPair=        56
 NAB=    28 NAA=     0 NBB=     0.
 DE(Corr)= -0.21988196     E(CORR)=     -79.012794851     Delta=-4.44D-04
 NORM(A)=   0.10490906D+01
 Iteration Nr.   5
 **********************
 DD1Dir will call FoFMem   1 times, MxPair=        56
 NAB=    28 NAA=     0 NBB=     0.
 DE(Corr)= -0.21991044     E(CORR)=     -79.012823330     Delta=-2.85D-05
 NORM(A)=   0.10490903D+01
 Iteration Nr.   6
 **********************
 DD1Dir will call FoFMem   1 times, MxPair=        56
 NAB=    28 NAA=     0 NBB=     0.
 DE(Corr)= -0.21991064     E(CORR)=     -79.012823524     Delta=-1.94D-07
 NORM(A)=   0.10490897D+01
 Iteration Nr.   7
 **********************
 DD1Dir will call FoFMem   1 times, MxPair=        56
 NAB=    28 NAA=     0 NBB=     0.
 DE(Corr)= -0.21991056     E(CORR)=     -79.012823448     Delta= 7.60D-08
 NORM(A)=   0.10490899D+01
 Iteration Nr.   8
 **********************
 DD1Dir will call FoFMem   1 times, MxPair=        56
 NAB=    28 NAA=     0 NBB=     0.
 DE(Corr)= -0.21991069     E(CORR)=     -79.012823579     Delta=-1.31D-07
 NORM(A)=   0.10490898D+01
 Iteration Nr.   9
 **********************
 DD1Dir will call FoFMem   1 times, MxPair=        56
 NAB=    28 NAA=     0 NBB=     0.
 DE(Corr)= -0.21991070     E(CORR)=     -79.012823584     Delta=-5.03D-09
 NORM(A)=   0.10490898D+01
 Iteration Nr.  10
 **********************
 DD1Dir will call FoFMem   1 times, MxPair=        56
 NAB=    28 NAA=     0 NBB=     0.
 DE(Corr)= -0.21991069     E(CORR)=     -79.012823580     Delta= 4.47D-09
 NORM(A)=   0.10490898D+01
 Iteration Nr.  11
 **********************
 DD1Dir will call FoFMem   1 times, MxPair=        56
 NAB=    28 NAA=     0 NBB=     0.
 DE(Corr)= -0.21991069     E(CORR)=     -79.012823575     Delta= 4.56D-09
 NORM(A)=   0.10490898D+01
 Largest amplitude= 5.37D-02

 Z-AMPLITUDE ITERATIONS

 Iteration Nr.   1
 **********************
 DD1Dir will call FoFMem   1 times, MxPair=        56
 NAB=    28 NAA=     0 NBB=     0.
 DE(Z)  -0.21731809D+00          E(Z)=    -0.79010230978D+02
 NORM(A)=   0.10490899D+01
 Iteration Nr.   2
 **********************
 DD1Dir will call FoFMem   1 times, MxPair=        56
 NAB=    28 NAA=     0 NBB=     0.
 DE(Z)  -0.21731815D+00          E(Z)=    -0.79010231039D+02
 NORM(A)=   0.10490893D+01
 Iteration Nr.   3
 **********************
 DD1Dir will call FoFMem   1 times, MxPair=        56
 NAB=    28 NAA=     0 NBB=     0.
 DE(Z)  -0.21731784D+00          E(Z)=    -0.79010230727D+02
 NORM(A)=   0.10490909D+01
 Iteration Nr.   4
 **********************
 DD1Dir will call FoFMem   1 times, MxPair=        56
 NAB=    28 NAA=     0 NBB=     0.
 DE(Z)  -0.21731858D+00          E(Z)=    -0.79010231469D+02
 NORM(A)=   0.10490884D+01
 Iteration Nr.   5
 **********************
 DD1Dir will call FoFMem   1 times, MxPair=        56
 NAB=    28 NAA=     0 NBB=     0.
 DE(Z)  -0.21731740D+00          E(Z)=    -0.79010230287D+02
 NORM(A)=   0.10474154D+01
 Iteration Nr.   6
 **********************
 DD1Dir will call FoFMem   1 times, MxPair=        56
 NAB=    28 NAA=     0 NBB=     0.
 DE(Z)  -0.21648870D+00          E(Z)=    -0.79009401588D+02
 NORM(A)=   0.10474162D+01
 Iteration Nr.   7
 **********************
 DD1Dir will call FoFMem   1 times, MxPair=        56
 NAB=    28 NAA=     0 NBB=     0.
 DE(Z)  -0.21648930D+00          E(Z)=    -0.79009402189D+02
 NORM(A)=   0.10474161D+01
 Iteration Nr.   8
 **********************
 DD1Dir will call FoFMem   1 times, MxPair=        56
 NAB=    28 NAA=     0 NBB=     0.
 DE(Z)  -0.21648926D+00          E(Z)=    -0.79009402152D+02
 NORM(A)=   0.10474152D+01
 Iteration Nr.   9
 **********************
 DD1Dir will call FoFMem   1 times, MxPair=        56
 NAB=    28 NAA=     0 NBB=     0.
 DE(Z)  -0.21648869D+00          E(Z)=    -0.79009401581D+02
 NORM(A)=   0.10474162D+01
 Iteration Nr.  10
 **********************
 DD1Dir will call FoFMem   1 times, MxPair=        56
 NAB=    28 NAA=     0 NBB=     0.
 DE(Z)  -0.21648930D+00          E(Z)=    -0.79009402188D+02
 NORM(A)=   0.10474162D+01
 Iteration Nr.  11
 **********************
 DD1Dir will call FoFMem   1 times, MxPair=        56
 NAB=    28 NAA=     0 NBB=     0.
 DE(Z)  -0.21648930D+00          E(Z)=    -0.79009402193D+02
 NORM(A)=   0.10474162D+01
 Discarding MO integrals.
          IDoAtm=11111111
          Differentiating once with respect to electric field.
                with respect to dipole field.
          Differentiating once with respect to nuclear coordinates.
 Keep R1 ints in memory in symmetry-blocked form, NReq=923085.
          There are     1 degrees of freedom in the 1st order CPHF.  IDoFFX=0 NUNeed=     1.
 LinEq1:  Iter=  0 NonCon=     1 RMS=3.86D-03 Max=2.41D-02 NDo=     1
 AX will form     1 AO Fock derivatives at one time.
 LinEq1:  Iter=  1 NonCon=     1 RMS=1.58D-03 Max=8.51D-03 NDo=     1
 LinEq1:  Iter=  2 NonCon=     1 RMS=1.12D-04 Max=7.32D-04 NDo=     1
 LinEq1:  Iter=  3 NonCon=     1 RMS=8.17D-06 Max=4.19D-05 NDo=     1
 LinEq1:  Iter=  4 NonCon=     1 RMS=4.46D-07 Max=2.64D-06 NDo=     1
 LinEq1:  Iter=  5 NonCon=     1 RMS=2.82D-08 Max=1.64D-07 NDo=     1
 LinEq1:  Iter=  6 NonCon=     1 RMS=1.64D-09 Max=7.43D-09 NDo=     1
 LinEq1:  Iter=  7 NonCon=     0 RMS=9.19D-11 Max=6.81D-10 NDo=     1
 Linear equations converged to 1.000D-10 1.000D-09 after     7 iterations.
 End of Minotr F.D. properties file   721 does not exist.
 End of Minotr F.D. properties file   722 does not exist.
 End of Minotr F.D. properties file   788 does not exist.
 Calling FoFJK, ICntrl=  10002127 FMM=F ISym2X=1 I1Cent= 0 IOpClX= 0 NMat=1 NMatS=1 NMatT=0.
 ***** Axes restored to original set *****
 -------------------------------------------------------------------
 Center     Atomic                   Forces (Hartrees/Bohr)
 Number     Number              X              Y              Z
 -------------------------------------------------------------------
      1        6          -0.000403843    0.000020915   -0.000000004
      2        6           0.000403843   -0.000020915    0.000000004
      3        1           0.000048959   -0.000037030   -0.000099436
      4        1           0.000056064    0.000100559    0.000019870
      5        1           0.000047141   -0.000071405    0.000079540
      6        1          -0.000047141    0.000071405   -0.000079540
      7        1          -0.000056064   -0.000100559   -0.000019870
      8        1          -0.000048959    0.000037030    0.000099436
 -------------------------------------------------------------------
 Cartesian Forces:  Max     0.000403843 RMS     0.000130537

 GradGradGradGradGradGradGradGradGradGradGradGradGradGradGradGradGradGrad
 Berny optimization.
 Using GEDIIS/GDIIS optimizer.
 FormGI is forming the generalized inverse of G from B-inverse, IUseBI=4.
 Internal  Forces:  Max     0.000252016 RMS     0.000072234
 Search for a local minimum.
 Step number   3 out of a maximum of   38
 All quantities printed in internal units (Hartrees-Bohrs-Radians)
 Mixed Optimization -- En-DIIS/RFO-DIIS
 Swapping is turned off.
 Update second derivatives using D2CorX and points    1    2    3
 DE= -1.64D-05 DEPred=-1.64D-05 R= 1.00D+00
 TightC=F SS=  1.41D+00  RLast= 1.26D-02 DXNew= 5.0454D-01 3.7795D-02
 Trust test= 1.00D+00 RLast= 1.26D-02 DXMaxT set to 3.00D-01
 ITU=  1  1  0
     Eigenvalues ---    0.00280   0.05520   0.05520   0.05520   0.05520
     Eigenvalues ---    0.16000   0.16000   0.16000   0.16000   0.16000
     Eigenvalues ---    0.16152   0.32010   0.34549   0.34549   0.34549
     Eigenvalues ---    0.34550   0.34550   0.35572
 En-DIIS/RFO-DIIS IScMMF=        0 using points:     3    2
 RFO step:  Lambda=-2.51565275D-07.
 DidBck=F Rises=F RFO-DIIS coefs:    0.97569    0.02431
 Iteration  1 RMS(Cart)=  0.00014801 RMS(Int)=  0.00000008
 Iteration  2 RMS(Cart)=  0.00000001 RMS(Int)=  0.00000008
 ClnCor:  largest displacement from symmetrization is 7.67D-09 for atom     7.
 Variable       Old X    -DE/DX   Delta X   Delta X   Delta X     New X
                                 (Linear)    (Quad)   (Total)
    R1        2.94087   0.00025   0.00012   0.00065   0.00077   2.94164
    R2        2.07741  -0.00012   0.00000  -0.00033  -0.00033   2.07708
    R3        2.07741  -0.00012   0.00000  -0.00033  -0.00033   2.07708
    R4        2.07741  -0.00012   0.00000  -0.00033  -0.00033   2.07708
    R5        2.07741  -0.00012   0.00000  -0.00033  -0.00033   2.07708
    R6        2.07741  -0.00012   0.00000  -0.00033  -0.00033   2.07708
    R7        2.07741  -0.00012   0.00000  -0.00033  -0.00033   2.07708
    A1        1.93211  -0.00001   0.00008  -0.00019  -0.00011   1.93200
    A2        1.93211  -0.00001   0.00008  -0.00019  -0.00011   1.93200
    A3        1.93211  -0.00001   0.00008  -0.00019  -0.00011   1.93200
    A4        1.88867   0.00001  -0.00008   0.00020   0.00012   1.88879
    A5        1.88867   0.00001  -0.00008   0.00020   0.00012   1.88879
    A6        1.88867   0.00001  -0.00008   0.00020   0.00012   1.88879
    A7        1.93211  -0.00001   0.00008  -0.00019  -0.00011   1.93200
    A8        1.93211  -0.00001   0.00008  -0.00019  -0.00011   1.93200
    A9        1.93211  -0.00001   0.00008  -0.00019  -0.00011   1.93200
   A10        1.88867   0.00001  -0.00008   0.00020   0.00012   1.88879
   A11        1.88867   0.00001  -0.00008   0.00020   0.00012   1.88879
   A12        1.88867   0.00001  -0.00008   0.00020   0.00012   1.88879
    D1        1.04720   0.00000   0.00000   0.00000   0.00000   1.04720
    D2       -1.04720   0.00000   0.00000   0.00000   0.00000  -1.04720
    D3        3.14159   0.00000   0.00000   0.00000   0.00000   3.14159
    D4       -1.04720   0.00000   0.00000   0.00000   0.00000  -1.04720
    D5        3.14159   0.00000   0.00000   0.00000   0.00000   3.14159
    D6        1.04720   0.00000   0.00000   0.00000   0.00000   1.04720
    D7        3.14159   0.00000   0.00000   0.00000   0.00000   3.14159
    D8        1.04720   0.00000   0.00000   0.00000   0.00000   1.04720
    D9       -1.04720   0.00000   0.00000   0.00000   0.00000  -1.04720
         Item               Value     Threshold  Converged?
 Maximum Force            0.000252     0.000450     YES
 RMS     Force            0.000072     0.000300     YES
 Maximum Displacement     0.000384     0.001800     YES
 RMS     Displacement     0.000148     0.001200     YES
 Predicted change in Energy=-2.191143D-07
 Optimization completed.
    -- Stationary point found.
                           ----------------------------
                           !   Optimized Parameters   !
                           ! (Angstroms and Degrees)  !
 --------------------------                            --------------------------
 ! Name  Definition              Value          Derivative Info.                !
 --------------------------------------------------------------------------------
 ! R1    R(1,2)                  1.5562         -DE/DX =    0.0003              !
 ! R2    R(1,3)                  1.0993         -DE/DX =   -0.0001              !
 ! R3    R(1,4)                  1.0993         -DE/DX =   -0.0001              !
 ! R4    R(1,5)                  1.0993         -DE/DX =   -0.0001              !
 ! R5    R(2,6)                  1.0993         -DE/DX =   -0.0001              !
 ! R6    R(2,7)                  1.0993         -DE/DX =   -0.0001              !
 ! R7    R(2,8)                  1.0993         -DE/DX =   -0.0001              !
 ! A1    A(2,1,3)              110.702          -DE/DX =    0.0                 !
 ! A2    A(2,1,4)              110.702          -DE/DX =    0.0                 !
 ! A3    A(2,1,5)              110.702          -DE/DX =    0.0                 !
 ! A4    A(3,1,4)              108.2129         -DE/DX =    0.0                 !
 ! A5    A(3,1,5)              108.2129         -DE/DX =    0.0                 !
 ! A6    A(4,1,5)              108.2129         -DE/DX =    0.0                 !
 ! A7    A(1,2,6)              110.702          -DE/DX =    0.0                 !
 ! A8    A(1,2,7)              110.702          -DE/DX =    0.0                 !
 ! A9    A(1,2,8)              110.702          -DE/DX =    0.0                 !
 ! A10   A(6,2,7)              108.2129         -DE/DX =    0.0                 !
 ! A11   A(6,2,8)              108.2129         -DE/DX =    0.0                 !
 ! A12   A(7,2,8)              108.2129         -DE/DX =    0.0                 !
 ! D1    D(3,1,2,6)             60.0            -DE/DX =    0.0                 !
 ! D2    D(3,1,2,7)            -60.0            -DE/DX =    0.0                 !
 ! D3    D(3,1,2,8)            180.0            -DE/DX =    0.0                 !
 ! D4    D(4,1,2,6)            -60.0            -DE/DX =    0.0                 !
 ! D5    D(4,1,2,7)            180.0            -DE/DX =    0.0                 !
 ! D6    D(4,1,2,8)             60.0            -DE/DX =    0.0                 !
 ! D7    D(5,1,2,6)            180.0            -DE/DX =    0.0                 !
 ! D8    D(5,1,2,7)             60.0            -DE/DX =    0.0                 !
 ! D9    D(5,1,2,8)            -60.0            -DE/DX =    0.0                 !
 --------------------------------------------------------------------------------
 GradGradGradGradGradGradGradGradGradGradGradGradGradGradGradGradGradGrad

                          Input orientation:                          
 ---------------------------------------------------------------------
 Center     Atomic      Atomic             Coordinates (Angstroms)
 Number     Number       Type             X           Y           Z
 ---------------------------------------------------------------------
      1          6           0       -6.397438    0.651514   -0.000001
      2          6           0       -4.843272    0.571116    0.000001
      3          1           0       -6.768143    1.007824    0.971660
      4          1           0       -6.837705   -0.336886   -0.194256
      5          1           0       -6.750760    1.343834   -0.777408
      6          1           0       -4.489950   -0.121204    0.777408
      7          1           0       -4.403005    1.559516    0.194256
      8          1           0       -4.472567    0.214806   -0.971660
 ---------------------------------------------------------------------
                    Distance matrix (angstroms):
                    1          2          3          4          5
     1  C    0.000000
     2  C    1.556243   0.000000
     3  H    1.099320   2.199992   0.000000
     4  H    1.099320   2.199992   1.781135   0.000000
     5  H    1.099320   2.199991   1.781135   1.781135   0.000000
     6  H    2.199991   1.099320   2.550019   2.550019   3.110473
     7  H    2.199992   1.099320   2.550020   3.110473   2.550019
     8  H    2.199992   1.099320   3.110473   2.550020   2.550019
                    6          7          8
     6  H    0.000000
     7  H    1.781135   0.000000
     8  H    1.781135   1.781135   0.000000
 This structure is nearly, but not quite of a higher symmetry.
 Consider Symm=Loose if the higher symmetry is desired.
 Stoichiometry    C2H6
 Framework group  CI[X(C2H6)]
 Deg. of freedom     9
 Full point group                 CI      NOp   2
 Largest Abelian subgroup         CI      NOp   2
 Largest concise Abelian subgroup CI      NOp   2
                         Standard orientation:                         
 ---------------------------------------------------------------------
 Center     Atomic      Atomic             Coordinates (Angstroms)
 Number     Number       Type             X           Y           Z
 ---------------------------------------------------------------------
      1          6           0       -0.777083    0.040199   -0.000001
      2          6           0        0.777083   -0.040199    0.000001
      3          1           0       -1.147788    0.396509    0.971660
      4          1           0       -1.217350   -0.948201   -0.194256
      5          1           0       -1.130405    0.732519   -0.777408
      6          1           0        1.130405   -0.732519    0.777408
      7          1           0        1.217350    0.948201    0.194256
      8          1           0        1.147788   -0.396509   -0.971660
 ---------------------------------------------------------------------
 Rotational constants (GHZ):     79.0329472     19.4674442     19.4674441

 **********************************************************************

            Population analysis using the SCF density.

 **********************************************************************

 Orbital symmetries:
       Occupied  (AU) (AG) (AG) (AU) (AU) (AU) (AG) (AG) (AG)
       Virtual   (AG) (AU) (AU) (AU) (AG) (AG) (AU) (AU) (AU) (AG)
                 (AU) (AG) (AG) (AG) (AG) (AG) (AU) (AU) (AU) (AG)
                 (AU)
 The electronic state is 1-AG.
 Alpha  occ. eigenvalues --  -11.15914 -11.15893  -1.01205  -0.84087  -0.59413
 Alpha  occ. eigenvalues --   -0.59413  -0.49906  -0.48434  -0.48434
 Alpha virt. eigenvalues --    0.27607   0.33485   0.33485   0.33729   0.36707
 Alpha virt. eigenvalues --    0.36707   0.41817   0.91092   0.91092   0.98441
 Alpha virt. eigenvalues --    1.06169   1.09546   1.09546   1.27090   1.35392
 Alpha virt. eigenvalues --    1.35392   1.36016   1.36016   1.43025   1.93185
 Alpha virt. eigenvalues --    2.28822
          Condensed to atoms (all electrons):
               1          2          3          4          5          6
     1  C    5.340381   0.245779   0.376519   0.376519   0.376519  -0.041172
     2  C    0.245779   5.340381  -0.041172  -0.041172  -0.041172   0.376519
     3  H    0.376519  -0.041172   0.520829  -0.026501  -0.026501  -0.001622
     4  H    0.376519  -0.041172  -0.026501   0.520829  -0.026501  -0.001622
     5  H    0.376519  -0.041172  -0.026501  -0.026501   0.520829   0.002669
     6  H   -0.041172   0.376519  -0.001622  -0.001622   0.002669   0.520829
     7  H   -0.041172   0.376519  -0.001622   0.002669  -0.001622  -0.026501
     8  H   -0.041172   0.376519   0.002669  -0.001622  -0.001622  -0.026501
               7          8
     1  C   -0.041172  -0.041172
     2  C    0.376519   0.376519
     3  H   -0.001622   0.002669
     4  H    0.002669  -0.001622
     5  H   -0.001622  -0.001622
     6  H   -0.026501  -0.026501
     7  H    0.520829  -0.026501
     8  H   -0.026501   0.520829
 Mulliken charges:
               1
     1  C   -0.592201
     2  C   -0.592201
     3  H    0.197400
     4  H    0.197400
     5  H    0.197400
     6  H    0.197400
     7  H    0.197400
     8  H    0.197400
 Sum of Mulliken charges =   0.00000
 Mulliken charges with hydrogens summed into heavy atoms:
               1
     1  C    0.000000
     2  C    0.000000
 Electronic spatial extent (au):  <R**2>=            111.8108
 Charge=              0.0000 electrons
 Dipole moment (field-independent basis, Debye):
    X=              0.0000    Y=              0.0000    Z=              0.0000  Tot=              0.0000
 Quadrupole moment (field-independent basis, Debye-Ang):
   XX=            -15.5855   YY=            -15.0999   ZZ=            -15.0986
   XY=              0.0252   XZ=              0.0000   YZ=              0.0000
 Traceless Quadrupole moment (field-independent basis, Debye-Ang):
   XX=             -0.3241   YY=              0.1614   ZZ=              0.1627
   XY=              0.0252   XZ=              0.0000   YZ=              0.0000
 Octapole moment (field-independent basis, Debye-Ang**2):
  XXX=              0.0000  YYY=              0.0000  ZZZ=              0.0000  XYY=              0.0000
  XXY=              0.0000  XXZ=              0.0000  XZZ=              0.0000  YZZ=              0.0000
  YYZ=              0.0000  XYZ=              0.0000
 Hexadecapole moment (field-independent basis, Debye-Ang**3):
 XXXX=            -95.0228 YYYY=            -28.8212 ZZZZ=            -28.4024 XXXY=              1.9359
 XXXZ=              0.0065 YYYX=              2.7751 YYYZ=             -0.1259 ZZZX=             -0.8134
 ZZZY=              0.0421 XXYY=            -19.1826 XXZZ=            -19.3968 YYZZ=             -9.3626
 XXYZ=              0.0838 YYXZ=              0.8069 ZZXY=             -0.7567
 N-N= 4.176789958399D+01 E-N=-2.659584987204D+02  KE= 7.849086119536D+01
 Symmetry AG   KE= 4.068816267146D+01
 Symmetry AU   KE= 3.780269852390D+01
 1\1\GINC-N0286\FOpt\RCCSD-FC\3-21G\C2H6\GDAVIDS3\21-Feb-2017\0\\#n CCS
 D/3-21G Opt\\Ethane CCSD 3-21G\\0,1\C,-6.3974375029,0.6515139206,-0.00
 00005756\C,-4.8432724971,0.5711160794,0.0000005756\H,-6.7681431238,1.0
 078238815,0.9716604406\H,-6.8377048216,-0.3368858888,-0.1942555545\H,-
 6.7507595765,1.3438335081,-0.7774075334\H,-4.4899504235,-0.1212035081,
 0.7774075334\H,-4.4030051784,1.5595158888,0.1942555545\H,-4.4725668762
 ,0.2148061185,-0.9716604406\\Version=ES64L-G09RevE.01\State=1-AG\HF=-7
 8.7929129\MP2=-78.9819602\MP3=-79.0039416\MP4D=-79.0109239\MP4DQ=-79.0
 096644\MP4SDQ=-79.0104611\CCSD=-79.0128236\RMSD=1.295e-09\RMSF=1.305e-
 04\Dipole=0.,0.,0.\PG=CI [X(C2H6)]\\@


 THE THINKER DIES, BUT HIS THOUGHTS ARE BEYOND THE 
 REACH OF DESTRUCTION.  MEN ARE MORTAL; BUT IDEAS 
 ARE IMMORTAL.
                              -- WALTER LIPPMANN
 Job cpu time:       0 days  0 hours  1 minutes 31.9 seconds.
 File lengths (MBytes):  RWF=     19 Int=      0 D2E=      0 Chk=      1 Scr=      1
 Normal termination of Gaussian 09 at Tue Feb 21 17:31:42 2017.
