 Entering Gaussian System, Link 0=g09
 Input=Ethane_CCSD_LANL2DZ.com
 Output=Ethane_CCSD_LANL2DZ.log
 Initial command:
 /sw/contrib/gaussian/g09/E01/g09/l1.exe "/scr/Gau-29379.inp" -scrdir="/scr/"
 Entering Link 1 = /sw/contrib/gaussian/g09/E01/g09/l1.exe PID=     29380.
  
 Copyright (c) 1988,1990,1992,1993,1995,1998,2003,2009,2015,
            Gaussian, Inc.  All Rights Reserved.
  
 This is part of the Gaussian(R) 09 program.  It is based on
 the Gaussian(R) 03 system (copyright 2003, Gaussian, Inc.),
 the Gaussian(R) 98 system (copyright 1998, Gaussian, Inc.),
 the Gaussian(R) 94 system (copyright 1995, Gaussian, Inc.),
 the Gaussian 92(TM) system (copyright 1992, Gaussian, Inc.),
 the Gaussian 90(TM) system (copyright 1990, Gaussian, Inc.),
 the Gaussian 88(TM) system (copyright 1988, Gaussian, Inc.),
 the Gaussian 86(TM) system (copyright 1986, Carnegie Mellon
 University), and the Gaussian 82(TM) system (copyright 1983,
 Carnegie Mellon University). Gaussian is a federally registered
 trademark of Gaussian, Inc.
  
 This software contains proprietary and confidential information,
 including trade secrets, belonging to Gaussian, Inc.
  
 This software is provided under written license and may be
 used, copied, transmitted, or stored only in accord with that
 written license.
  
 The following legend is applicable only to US Government
 contracts under FAR:
  
                    RESTRICTED RIGHTS LEGEND
  
 Use, reproduction and disclosure by the US Government is
 subject to restrictions as set forth in subparagraphs (a)
 and (c) of the Commercial Computer Software - Restricted
 Rights clause in FAR 52.227-19.
  
 Gaussian, Inc.
 340 Quinnipiac St., Bldg. 40, Wallingford CT 06492
  
  
 ---------------------------------------------------------------
 Warning -- This program may not be used in any manner that
 competes with the business of Gaussian, Inc. or will provide
 assistance to any competitor of Gaussian, Inc.  The licensee
 of this program is prohibited from giving any competitor of
 Gaussian, Inc. access to this program.  By using this program,
 the user acknowledges that Gaussian, Inc. is engaged in the
 business of creating and licensing software in the field of
 computational chemistry and represents and warrants to the
 licensee that it is not a competitor of Gaussian, Inc. and that
 it will not use this program in any manner prohibited above.
 ---------------------------------------------------------------
  

 Cite this work as:
 Gaussian 09, Revision E.01,
 M. J. Frisch, G. W. Trucks, H. B. Schlegel, G. E. Scuseria, 
 M. A. Robb, J. R. Cheeseman, G. Scalmani, V. Barone, B. Mennucci, 
 G. A. Petersson, H. Nakatsuji, M. Caricato, X. Li, H. P. Hratchian, 
 A. F. Izmaylov, J. Bloino, G. Zheng, J. L. Sonnenberg, M. Hada, 
 M. Ehara, K. Toyota, R. Fukuda, J. Hasegawa, M. Ishida, T. Nakajima, 
 Y. Honda, O. Kitao, H. Nakai, T. Vreven, J. A. Montgomery, Jr., 
 J. E. Peralta, F. Ogliaro, M. Bearpark, J. J. Heyd, E. Brothers, 
 K. N. Kudin, V. N. Staroverov, T. Keith, R. Kobayashi, J. Normand, 
 K. Raghavachari, A. Rendell, J. C. Burant, S. S. Iyengar, J. Tomasi, 
 M. Cossi, N. Rega, J. M. Millam, M. Klene, J. E. Knox, J. B. Cross, 
 V. Bakken, C. Adamo, J. Jaramillo, R. Gomperts, R. E. Stratmann, 
 O. Yazyev, A. J. Austin, R. Cammi, C. Pomelli, J. W. Ochterski, 
 R. L. Martin, K. Morokuma, V. G. Zakrzewski, G. A. Voth, 
 P. Salvador, J. J. Dannenberg, S. Dapprich, A. D. Daniels, 
 O. Farkas, J. B. Foresman, J. V. Ortiz, J. Cioslowski, 
 and D. J. Fox, Gaussian, Inc., Wallingford CT, 2013.
 
 ******************************************
 Gaussian 09:  ES64L-G09RevE.01 30-Nov-2015
                21-Feb-2017 
 ******************************************
 %NProcShared=8
 Will use up to    8 processors via shared memory.
 -------------------
 #n CCSD/LANL2DZ Opt
 -------------------
 1/18=20,19=15,38=1/1,3;
 2/9=110,12=2,17=6,18=5,40=1/2;
 3/5=6,6=3,11=9,16=1,25=1,30=1,71=1/1,2,3;
 4//1;
 5/5=2,38=5/2;
 8/6=4,9=120000,10=1/1,4;
 9/5=7,15=1/13;
 11/28=-8,29=200,42=3/11;
 10/5=6/2;
 6/7=2,8=2,9=2,10=2/1;
 7/12=7/1,2,3,16;
 1/18=20,19=15/3(2);
 2/9=110/2;
 99//99;
 2/9=110/2;
 3/5=6,6=3,11=9,16=1,25=1,30=1,71=1/1,2,3;
 4/5=5,16=3,69=1/1;
 5/5=2,38=5/2;
 8/6=4,9=120000,10=1/1,4;
 9/5=7,15=1/13;
 11/28=-8,29=200,42=3/11;
 10/5=6/2;
 7/12=7/1,2,3,16;
 1/18=20,19=15/3(-9);
 2/9=110/2;
 6/7=2,8=2,9=2,10=2/1;
 99//99;
 -------------------
 Ethane CCSD LANL2DZ
 -------------------
 Symbolic Z-matrix:
 Charge =  0 Multiplicity = 1
 C                    -6.3877    0.65101   0. 
 C                    -4.85301   0.57162   0. 
 H                    -6.75069   1.00542   0.96733 
 H                    -6.81994  -0.3333   -0.19339 
 H                    -6.73338   1.33993  -0.77394 
 H                    -4.50733  -0.1173    0.77394 
 H                    -4.42077   1.55593   0.19339 
 H                    -4.49002   0.21721  -0.96733 
 

 GradGradGradGradGradGradGradGradGradGradGradGradGradGradGradGradGradGrad
 Berny optimization.
 Initialization pass.
                           ----------------------------
                           !    Initial Parameters    !
                           ! (Angstroms and Degrees)  !
 --------------------------                            --------------------------
 ! Name  Definition              Value          Derivative Info.                !
 --------------------------------------------------------------------------------
 ! R1    R(1,2)                  1.5367         estimate D2E/DX2                !
 ! R2    R(1,3)                  1.0923         estimate D2E/DX2                !
 ! R3    R(1,4)                  1.0923         estimate D2E/DX2                !
 ! R4    R(1,5)                  1.0923         estimate D2E/DX2                !
 ! R5    R(2,6)                  1.0923         estimate D2E/DX2                !
 ! R6    R(2,7)                  1.0923         estimate D2E/DX2                !
 ! R7    R(2,8)                  1.0923         estimate D2E/DX2                !
 ! A1    A(2,1,3)              110.4041         estimate D2E/DX2                !
 ! A2    A(2,1,4)              110.4039         estimate D2E/DX2                !
 ! A3    A(2,1,5)              110.4038         estimate D2E/DX2                !
 ! A4    A(3,1,4)              108.5227         estimate D2E/DX2                !
 ! A5    A(3,1,5)              108.5224         estimate D2E/DX2                !
 ! A6    A(4,1,5)              108.5227         estimate D2E/DX2                !
 ! A7    A(1,2,6)              110.4038         estimate D2E/DX2                !
 ! A8    A(1,2,7)              110.4039         estimate D2E/DX2                !
 ! A9    A(1,2,8)              110.4041         estimate D2E/DX2                !
 ! A10   A(6,2,7)              108.5227         estimate D2E/DX2                !
 ! A11   A(6,2,8)              108.5224         estimate D2E/DX2                !
 ! A12   A(7,2,8)              108.5227         estimate D2E/DX2                !
 ! D1    D(3,1,2,6)             60.0002         estimate D2E/DX2                !
 ! D2    D(3,1,2,7)            -59.9998         estimate D2E/DX2                !
 ! D3    D(3,1,2,8)            180.0            estimate D2E/DX2                !
 ! D4    D(4,1,2,6)            -60.0            estimate D2E/DX2                !
 ! D5    D(4,1,2,7)            180.0            estimate D2E/DX2                !
 ! D6    D(4,1,2,8)             59.9998         estimate D2E/DX2                !
 ! D7    D(5,1,2,6)            180.0            estimate D2E/DX2                !
 ! D8    D(5,1,2,7)             60.0            estimate D2E/DX2                !
 ! D9    D(5,1,2,8)            -60.0002         estimate D2E/DX2                !
 --------------------------------------------------------------------------------
 Trust Radius=3.00D-01 FncErr=1.00D-07 GrdErr=1.00D-07
 Number of steps in this run=     38 maximum allowed number of steps=    100.
 GradGradGradGradGradGradGradGradGradGradGradGradGradGradGradGradGradGrad

                          Input orientation:                          
 ---------------------------------------------------------------------
 Center     Atomic      Atomic             Coordinates (Angstroms)
 Number     Number       Type             X           Y           Z
 ---------------------------------------------------------------------
      1          6           0       -6.387700    0.651010    0.000000
      2          6           0       -4.853010    0.571620    0.000000
      3          1           0       -6.750690    1.005420    0.967330
      4          1           0       -6.819940   -0.333300   -0.193390
      5          1           0       -6.733380    1.339930   -0.773940
      6          1           0       -4.507330   -0.117300    0.773940
      7          1           0       -4.420770    1.555930    0.193390
      8          1           0       -4.490020    0.217210   -0.967330
 ---------------------------------------------------------------------
                    Distance matrix (angstroms):
                    1          2          3          4          5
     1  C    0.000000
     2  C    1.536742   0.000000
     3  H    1.092289   2.173729   0.000000
     4  H    1.092290   2.173728   1.773200   0.000000
     5  H    1.092286   2.173724   1.773194   1.773198   0.000000
     6  H    2.173724   1.092286   2.516061   2.516058   3.078108
     7  H    2.173728   1.092290   2.516063   3.078117   2.516058
     8  H    2.173729   1.092289   3.078118   2.516063   2.516061
                    6          7          8
     6  H    0.000000
     7  H    1.773198   0.000000
     8  H    1.773194   1.773200   0.000000
 This structure is nearly, but not quite of a higher symmetry.
 Consider Symm=Loose if the higher symmetry is desired.
 Stoichiometry    C2H6
 Framework group  CI[X(C2H6)]
 Deg. of freedom     9
 Full point group                 CI      NOp   2
 Largest Abelian subgroup         CI      NOp   2
 Largest concise Abelian subgroup CI      NOp   2
                         Standard orientation:                         
 ---------------------------------------------------------------------
 Center     Atomic      Atomic             Coordinates (Angstroms)
 Number     Number       Type             X           Y           Z
 ---------------------------------------------------------------------
      1          6           0       -0.767345    0.039695    0.000000
      2          6           0        0.767345   -0.039695    0.000000
      3          1           0       -1.130335    0.394105    0.967330
      4          1           0       -1.199585   -0.944615   -0.193390
      5          1           0       -1.113025    0.728615   -0.773940
      6          1           0        1.113025   -0.728615    0.773940
      7          1           0        1.199585    0.944615    0.193390
      8          1           0        1.130335   -0.394105   -0.967330
 ---------------------------------------------------------------------
 Rotational constants (GHZ):     79.7421566     19.9565168     19.9564985
 Standard basis: LANL2DZ (5D, 7F)
 There are    15 symmetry adapted cartesian basis functions of AG  symmetry.
 There are    15 symmetry adapted cartesian basis functions of AU  symmetry.
 There are    15 symmetry adapted basis functions of AG  symmetry.
 There are    15 symmetry adapted basis functions of AU  symmetry.
    30 basis functions,    74 primitive gaussians,    30 cartesian basis functions
     9 alpha electrons        9 beta electrons
       nuclear repulsion energy        42.1695770054 Hartrees.
 NAtoms=    8 NActive=    8 NUniq=    4 SFac= 4.00D+00 NAtFMM=   60 NAOKFM=F Big=F
 Integral buffers will be    131072 words long.
 Raffenetti 1 integral format.
 Two-electron integral symmetry is turned on.
 One-electron integrals computed using PRISM.
   2 Symmetry operations used in ECPInt.
 ECPInt:  NShTT=     253 NPrTT=    1559 LenC2=     254 LenP2D=    1400.
 LDataN:  DoStor=T MaxTD1= 2 Len=   12
 NBasis=    30 RedAO= T EigKep=  6.44D-03  NBF=    15    15
 NBsUse=    30 1.00D-06 EigRej= -1.00D+00 NBFU=    15    15
 ExpMin= 1.15D-01 ExpMax= 4.23D+03 ExpMxC= 1.46D+02 IAcc=1 IRadAn=         1 AccDes= 0.00D+00
 Harris functional with IExCor=  205 and IRadAn=       1 diagonalized for initial guess.
 HarFok:  IExCor=  205 AccDes= 0.00D+00 IRadAn=         1 IDoV= 1 UseB2=F ITyADJ=14
 ICtDFT=  3500011 ScaDFX=  1.000000  1.000000  1.000000  1.000000
 FoFCou: FMM=F IPFlag=           0 FMFlag=      100000 FMFlg1=           0
         NFxFlg=           0 DoJE=T BraDBF=F KetDBF=T FulRan=T
         wScrn=  0.000000 ICntrl=     500 IOpCl=  0 I1Cent=   200000004 NGrid=           0
         NMat0=    1 NMatS0=      1 NMatT0=    0 NMatD0=    1 NMtDS0=    0 NMtDT0=    0
 Petite list used in FoFCou.
 Initial guess orbital symmetries:
       Occupied  (AG) (AU) (AG) (AU) (AU) (AU) (AG) (AG) (AG)
       Virtual   (AU) (AG) (AU) (AU) (AG) (AG) (AU) (AU) (AU) (AG)
                 (AG) (AG) (AU) (AG) (AU) (AG) (AU) (AU) (AG) (AG)
                 (AU)
 The electronic state of the initial guess is 1-AG.
 Keep R1 ints in memory in symmetry-blocked form, NReq=955573.
 Requested convergence on RMS density matrix=1.00D-08 within 128 cycles.
 Requested convergence on MAX density matrix=1.00D-06.
 Requested convergence on             energy=1.00D-06.
 No special actions if energy rises.
 SCF Done:  E(RHF) =  -79.2056342918     A.U. after    9 cycles
            NFock=  9  Conv=0.17D-08     -V/T= 1.9988
 ExpMin= 1.15D-01 ExpMax= 4.23D+03 ExpMxC= 1.46D+02 IAcc=3 IRadAn=         5 AccDes= 0.00D+00
 HarFok:  IExCor=  205 AccDes= 0.00D+00 IRadAn=         5 IDoV=-2 UseB2=F ITyADJ=14
 ICtDFT= 12500011 ScaDFX=  1.000000  1.000000  1.000000  1.000000
 Range of M.O.s used for correlation:     3    30
 NBasis=    30 NAE=     9 NBE=     9 NFC=     2 NFV=     0
 NROrb=     28 NOA=     7 NOB=     7 NVA=    21 NVB=    21
 Semi-Direct transformation.
 ModeAB=           4 MOrb=             7 LenV=      33417473
 LASXX=        30133 LTotXX=       30133 LenRXX=       63623
 LTotAB=       33490 MaxLAS=       49392 LenRXY=           0
 NonZer=       93756 LenScr=      785920 LnRSAI=       49392
 LnScr1=      785920 LExtra=           0 Total=      1684855
 MaxDsk=          -1 SrtSym=           T ITran=            4
 JobTyp=0 Pass  1:  I=   1 to   7.
 (rs|ai) integrals will be sorted in core.
 Spin components of T(2) and E(2):
     alpha-alpha T2 =       0.6806952375D-02 E2=     -0.1566534026D-01
     alpha-beta  T2 =       0.5687956886D-01 E2=     -0.1448471909D+00
     beta-beta   T2 =       0.6806952375D-02 E2=     -0.1566534026D-01
 ANorm=    0.1034646545D+01
 E2 =    -0.1761778715D+00 EUMP2 =    -0.79381812163227D+02
 Keep R2 and R3 ints in memory in symmetry-blocked form, NReq=911112.
 Iterations=  50 Convergence= 0.100D-07
 Iteration Nr.   1
 **********************
 DD1Dir will call FoFMem   1 times, MxPair=        56
 NAB=    28 NAA=     0 NBB=     0.
 MP4(R+Q)=  0.11641981D-02
 E3=       -0.23964647D-01        EUMP3=      -0.79405776810D+02
 E4(DQ)=   -0.61020398D-02        UMP4(DQ)=   -0.79411878850D+02
 E4(SDQ)=  -0.63410644D-02        UMP4(SDQ)=  -0.79412117875D+02
 DE(Corr)= -0.19897778     E(Corr)=     -79.404612067    
 NORM(A)=   0.10460329D+01
 Iteration Nr.   2
 **********************
 DD1Dir will call FoFMem   1 times, MxPair=        56
 NAB=    28 NAA=     0 NBB=     0.
 DE(Corr)= -0.20635506     E(CORR)=     -79.411989354     Delta=-7.38D-03
 NORM(A)=   0.10498075D+01
 Iteration Nr.   3
 **********************
 DD1Dir will call FoFMem   1 times, MxPair=        56
 NAB=    28 NAA=     0 NBB=     0.
 DE(Corr)= -0.20868161     E(CORR)=     -79.414315901     Delta=-2.33D-03
 NORM(A)=   0.10502353D+01
 Iteration Nr.   4
 **********************
 DD1Dir will call FoFMem   1 times, MxPair=        56
 NAB=    28 NAA=     0 NBB=     0.
 DE(Corr)= -0.20900914     E(CORR)=     -79.414643428     Delta=-3.28D-04
 NORM(A)=   0.10502789D+01
 Iteration Nr.   5
 **********************
 DD1Dir will call FoFMem   1 times, MxPair=        56
 NAB=    28 NAA=     0 NBB=     0.
 DE(Corr)= -0.20903145     E(CORR)=     -79.414665745     Delta=-2.23D-05
 NORM(A)=   0.10502781D+01
 Iteration Nr.   6
 **********************
 DD1Dir will call FoFMem   1 times, MxPair=        56
 NAB=    28 NAA=     0 NBB=     0.
 DE(Corr)= -0.20903216     E(CORR)=     -79.414666450     Delta=-7.06D-07
 NORM(A)=   0.10502776D+01
 Iteration Nr.   7
 **********************
 DD1Dir will call FoFMem   1 times, MxPair=        56
 NAB=    28 NAA=     0 NBB=     0.
 DE(Corr)= -0.20903213     E(CORR)=     -79.414666425     Delta= 2.54D-08
 NORM(A)=   0.10502777D+01
 Iteration Nr.   8
 **********************
 DD1Dir will call FoFMem   1 times, MxPair=        56
 NAB=    28 NAA=     0 NBB=     0.
 DE(Corr)= -0.20903220     E(CORR)=     -79.414666497     Delta=-7.16D-08
 NORM(A)=   0.10502777D+01
 Iteration Nr.   9
 **********************
 DD1Dir will call FoFMem   1 times, MxPair=        56
 NAB=    28 NAA=     0 NBB=     0.
 DE(Corr)= -0.20903221     E(CORR)=     -79.414666498     Delta=-1.68D-09
 NORM(A)=   0.10502777D+01
 Iteration Nr.  10
 **********************
 DD1Dir will call FoFMem   1 times, MxPair=        56
 NAB=    28 NAA=     0 NBB=     0.
 DE(Corr)= -0.20903221     E(CORR)=     -79.414666502     Delta=-3.58D-09
 NORM(A)=   0.10502777D+01
 Iteration Nr.  11
 **********************
 DD1Dir will call FoFMem   1 times, MxPair=        56
 NAB=    28 NAA=     0 NBB=     0.
 DE(Corr)= -0.20903221     E(CORR)=     -79.414666502     Delta=-4.70D-10
 NORM(A)=   0.10502777D+01
 Largest amplitude= 5.14D-02

 Z-AMPLITUDE ITERATIONS

 Iteration Nr.   1
 **********************
 DD1Dir will call FoFMem   1 times, MxPair=        56
 NAB=    28 NAA=     0 NBB=     0.
 DE(Z)  -0.20655489D+00          E(Z)=    -0.79412189177D+02
 NORM(A)=   0.10502772D+01
 Iteration Nr.   2
 **********************
 DD1Dir will call FoFMem   1 times, MxPair=        56
 NAB=    28 NAA=     0 NBB=     0.
 DE(Z)  -0.20655470D+00          E(Z)=    -0.79412188992D+02
 NORM(A)=   0.10502769D+01
 Iteration Nr.   3
 **********************
 DD1Dir will call FoFMem   1 times, MxPair=        56
 NAB=    28 NAA=     0 NBB=     0.
 DE(Z)  -0.20655459D+00          E(Z)=    -0.79412188887D+02
 NORM(A)=   0.10502805D+01
 Iteration Nr.   4
 **********************
 DD1Dir will call FoFMem   1 times, MxPair=        56
 NAB=    28 NAA=     0 NBB=     0.
 DE(Z)  -0.20655596D+00          E(Z)=    -0.79412190247D+02
 NORM(A)=   0.10503234D+01
 Iteration Nr.   5
 **********************
 DD1Dir will call FoFMem   1 times, MxPair=        56
 NAB=    28 NAA=     0 NBB=     0.
 DE(Z)  -0.20657211D+00          E(Z)=    -0.79412206397D+02
 NORM(A)=   0.10486999D+01
 Iteration Nr.   6
 **********************
 DD1Dir will call FoFMem   1 times, MxPair=        56
 NAB=    28 NAA=     0 NBB=     0.
 DE(Z)  -0.20594792D+00          E(Z)=    -0.79411582207D+02
 NORM(A)=   0.10486990D+01
 Iteration Nr.   7
 **********************
 DD1Dir will call FoFMem   1 times, MxPair=        56
 NAB=    28 NAA=     0 NBB=     0.
 DE(Z)  -0.20594804D+00          E(Z)=    -0.79411582334D+02
 NORM(A)=   0.10486990D+01
 Iteration Nr.   8
 **********************
 DD1Dir will call FoFMem   1 times, MxPair=        56
 NAB=    28 NAA=     0 NBB=     0.
 DE(Z)  -0.20594806D+00          E(Z)=    -0.79411582355D+02
 NORM(A)=   0.10486990D+01
 Iteration Nr.   9
 **********************
 DD1Dir will call FoFMem   1 times, MxPair=        56
 NAB=    28 NAA=     0 NBB=     0.
 DE(Z)  -0.20594807D+00          E(Z)=    -0.79411582358D+02
 NORM(A)=   0.10486990D+01
 Discarding MO integrals.
          IDoAtm=11111111
          Differentiating once with respect to electric field.
                with respect to dipole field.
          Differentiating once with respect to nuclear coordinates.
 Keep R1 ints in memory in symmetry-blocked form, NReq=943686.
          There are     1 degrees of freedom in the 1st order CPHF.  IDoFFX=0 NUNeed=     1.
 LinEq1:  Iter=  0 NonCon=     1 RMS=2.09D-03 Max=1.07D-02 NDo=     1
 AX will form     1 AO Fock derivatives at one time.
 LinEq1:  Iter=  1 NonCon=     1 RMS=1.86D-04 Max=1.20D-03 NDo=     1
 LinEq1:  Iter=  2 NonCon=     1 RMS=6.81D-05 Max=2.87D-04 NDo=     1
 LinEq1:  Iter=  3 NonCon=     1 RMS=6.79D-06 Max=3.20D-05 NDo=     1
 LinEq1:  Iter=  4 NonCon=     1 RMS=3.93D-07 Max=2.31D-06 NDo=     1
 LinEq1:  Iter=  5 NonCon=     1 RMS=3.07D-08 Max=2.25D-07 NDo=     1
 LinEq1:  Iter=  6 NonCon=     1 RMS=2.67D-09 Max=1.60D-08 NDo=     1
 LinEq1:  Iter=  7 NonCon=     1 RMS=2.38D-10 Max=1.71D-09 NDo=     1
 LinEq1:  Iter=  8 NonCon=     0 RMS=2.02D-11 Max=1.52D-10 NDo=     1
 Linear equations converged to 1.000D-10 1.000D-09 after     8 iterations.
 End of Minotr F.D. properties file   721 does not exist.
 End of Minotr F.D. properties file   722 does not exist.
 End of Minotr F.D. properties file   788 does not exist.

 **********************************************************************

            Population analysis using the SCF density.

 **********************************************************************

 Orbital symmetries:
       Occupied  (AG) (AU) (AG) (AU) (AU) (AU) (AG) (AG) (AG)
       Virtual   (AU) (AG) (AG) (AG) (AU) (AU) (AU) (AG) (AU) (AU)
                 (AG) (AG) (AU) (AG) (AU) (AG) (AU) (AU) (AG) (AG)
                 (AU)
 The electronic state is 1-AG.
 Alpha  occ. eigenvalues --  -11.21267 -11.21210  -1.01862  -0.84091  -0.59709
 Alpha  occ. eigenvalues --   -0.59709  -0.50068  -0.48406  -0.48406
 Alpha virt. eigenvalues --    0.25252   0.27317   0.32024   0.32024   0.36859
 Alpha virt. eigenvalues --    0.36859   0.39628   0.45362   0.46682   0.46682
 Alpha virt. eigenvalues --    0.52168   0.52168   0.75187   1.16914   1.29587
 Alpha virt. eigenvalues --    1.34546   1.38860   1.38860   1.42959   1.42959
 Alpha virt. eigenvalues --    1.61907
          Condensed to atoms (all electrons):
               1          2          3          4          5          6
     1  C    5.211049   0.279324   0.384459   0.384459   0.384459  -0.047369
     2  C    0.279324   5.211049  -0.047369  -0.047369  -0.047369   0.384459
     3  H    0.384459  -0.047369   0.547095  -0.025276  -0.025276  -0.002124
     4  H    0.384459  -0.047369  -0.025276   0.547095  -0.025276  -0.002124
     5  H    0.384459  -0.047369  -0.025276  -0.025276   0.547095   0.003399
     6  H   -0.047369   0.384459  -0.002124  -0.002124   0.003399   0.547095
     7  H   -0.047369   0.384459  -0.002124   0.003399  -0.002124  -0.025276
     8  H   -0.047369   0.384459   0.003399  -0.002124  -0.002124  -0.025276
               7          8
     1  C   -0.047369  -0.047369
     2  C    0.384459   0.384459
     3  H   -0.002124   0.003399
     4  H    0.003399  -0.002124
     5  H   -0.002124  -0.002124
     6  H   -0.025276  -0.025276
     7  H    0.547095  -0.025276
     8  H   -0.025276   0.547095
 Mulliken charges:
               1
     1  C   -0.501644
     2  C   -0.501644
     3  H    0.167215
     4  H    0.167214
     5  H    0.167215
     6  H    0.167215
     7  H    0.167214
     8  H    0.167215
 Sum of Mulliken charges =   0.00000
 Mulliken charges with hydrogens summed into heavy atoms:
               1
     1  C    0.000000
     2  C    0.000000
 Electronic spatial extent (au):  <R**2>=            109.9006
 Charge=              0.0000 electrons
 Dipole moment (field-independent basis, Debye):
    X=              0.0000    Y=              0.0000    Z=              0.0000  Tot=              0.0000
 Quadrupole moment (field-independent basis, Debye-Ang):
   XX=            -15.7146   YY=            -14.9071   ZZ=            -14.9050
   XY=              0.0419   XZ=              0.0000   YZ=              0.0000
 Traceless Quadrupole moment (field-independent basis, Debye-Ang):
   XX=             -0.5390   YY=              0.2684   ZZ=              0.2706
   XY=              0.0419   XZ=              0.0000   YZ=              0.0000
 Octapole moment (field-independent basis, Debye-Ang**2):
  XXX=              0.0000  YYY=              0.0000  ZZZ=              0.0000  XYY=              0.0000
  XXY=              0.0000  XXZ=              0.0000  XZZ=              0.0000  YZZ=              0.0000
  YYZ=              0.0000  XYZ=              0.0000
 Hexadecapole moment (field-independent basis, Debye-Ang**3):
 XXXX=            -93.9379 YYYY=            -29.1037 ZZZZ=            -28.7291 XXXY=              1.8652
 XXXZ=              0.0054 YYYX=              2.5609 YYYZ=             -0.1048 ZZZX=             -0.6772
 ZZZY=              0.0350 XXYY=            -19.2831 XXZZ=            -19.4571 YYZZ=             -9.4934
 XXYZ=              0.0698 YYXZ=              0.6718 ZZXY=             -0.5466
 N-N= 4.216957700541D+01 E-N=-2.681551719317D+02  KE= 7.929930968677D+01
 Symmetry AG   KE= 4.115134547120D+01
 Symmetry AU   KE= 3.814796421557D+01
   2 Symmetry operations used in ECPInt.
 ECPInt:  NShTT=     253 NPrTT=    1559 LenC2=     254 LenP2D=    1400.
 LDataN:  DoStor=T MaxTD1= 3 Len=   28
 Calling FoFJK, ICntrl=  10002127 FMM=F ISym2X=1 I1Cent= 0 IOpClX= 0 NMat=1 NMatS=1 NMatT=0.
 ***** Axes restored to original set *****
 -------------------------------------------------------------------
 Center     Atomic                   Forces (Hartrees/Bohr)
 Number     Number              X              Y              Z
 -------------------------------------------------------------------
      1        6          -0.001471984    0.000074829    0.000000781
      2        6           0.001471984   -0.000074829   -0.000000781
      3        1          -0.005585498    0.003370585    0.008882549
      4        1          -0.006221491   -0.008921190   -0.001775627
      5        1          -0.005427728    0.006443638   -0.007108313
      6        1           0.005427728   -0.006443638    0.007108313
      7        1           0.006221491    0.008921190    0.001775627
      8        1           0.005585498   -0.003370585   -0.008882549
 -------------------------------------------------------------------
 Cartesian Forces:  Max     0.008921190 RMS     0.005527107

 GradGradGradGradGradGradGradGradGradGradGradGradGradGradGradGradGradGrad
 Berny optimization.
 FormGI is forming the generalized inverse of G from B-inverse, IUseBI=4.
 Internal  Forces:  Max     0.018731723 RMS     0.006290918
 Search for a local minimum.
 Step number   1 out of a maximum of   38
 All quantities printed in internal units (Hartrees-Bohrs-Radians)
 Mixed Optimization -- RFO/linear search
 Second derivative matrix not updated -- first step.
 ITU=  0
     Eigenvalues ---    0.00280   0.05575   0.05575   0.05575   0.05575
     Eigenvalues ---    0.16000   0.16000   0.16000   0.16000   0.16000
     Eigenvalues ---    0.16000   0.28809   0.34549   0.34549   0.34549
     Eigenvalues ---    0.34549   0.34550   0.34550
 RFO step:  Lambda=-3.55200378D-03 EMin= 2.79920382D-03
 Linear search not attempted -- first point.
 Iteration  1 RMS(Cart)=  0.03378882 RMS(Int)=  0.00011669
 Iteration  2 RMS(Cart)=  0.00014642 RMS(Int)=  0.00005323
 Iteration  3 RMS(Cart)=  0.00000002 RMS(Int)=  0.00005323
 ClnCor:  largest displacement from symmetrization is 1.34D-08 for atom     8.
 Variable       Old X    -DE/DX   Delta X   Delta X   Delta X     New X
                                 (Linear)    (Quad)   (Total)
    R1        2.90402   0.01873   0.00000   0.06423   0.06423   2.96825
    R2        2.06413   0.01082   0.00000   0.03099   0.03099   2.09512
    R3        2.06413   0.01082   0.00000   0.03099   0.03099   2.09512
    R4        2.06412   0.01082   0.00000   0.03099   0.03099   2.09512
    R5        2.06412   0.01082   0.00000   0.03099   0.03099   2.09512
    R6        2.06413   0.01082   0.00000   0.03099   0.03099   2.09512
    R7        2.06413   0.01082   0.00000   0.03099   0.03099   2.09512
    A1        1.92691   0.00211   0.00000   0.01289   0.01281   1.93973
    A2        1.92691   0.00211   0.00000   0.01290   0.01281   1.93973
    A3        1.92691   0.00211   0.00000   0.01290   0.01282   1.93973
    A4        1.89408  -0.00218   0.00000  -0.01333  -0.01341   1.88066
    A5        1.89407  -0.00218   0.00000  -0.01333  -0.01341   1.88066
    A6        1.89408  -0.00218   0.00000  -0.01333  -0.01341   1.88066
    A7        1.92691   0.00211   0.00000   0.01290   0.01282   1.93973
    A8        1.92691   0.00211   0.00000   0.01290   0.01281   1.93973
    A9        1.92691   0.00211   0.00000   0.01289   0.01281   1.93973
   A10        1.89408  -0.00218   0.00000  -0.01333  -0.01341   1.88066
   A11        1.89407  -0.00218   0.00000  -0.01333  -0.01341   1.88066
   A12        1.89408  -0.00218   0.00000  -0.01333  -0.01341   1.88066
    D1        1.04720   0.00000   0.00000   0.00000   0.00000   1.04720
    D2       -1.04719   0.00000   0.00000   0.00000   0.00000  -1.04720
    D3        3.14159   0.00000   0.00000   0.00000   0.00000   3.14159
    D4       -1.04720   0.00000   0.00000   0.00000   0.00000  -1.04720
    D5        3.14159   0.00000   0.00000   0.00000   0.00000   3.14159
    D6        1.04719   0.00000   0.00000   0.00000   0.00000   1.04720
    D7        3.14159   0.00000   0.00000   0.00000   0.00000   3.14159
    D8        1.04720   0.00000   0.00000   0.00000   0.00000   1.04720
    D9       -1.04720   0.00000   0.00000   0.00000   0.00000  -1.04720
         Item               Value     Threshold  Converged?
 Maximum Force            0.018732     0.000450     NO 
 RMS     Force            0.006291     0.000300     NO 
 Maximum Displacement     0.068917     0.001800     NO 
 RMS     Displacement     0.033864     0.001200     NO 
 Predicted change in Energy=-1.797218D-03
 GradGradGradGradGradGradGradGradGradGradGradGradGradGradGradGradGradGrad

                          Input orientation:                          
 ---------------------------------------------------------------------
 Center     Atomic      Atomic             Coordinates (Angstroms)
 Number     Number       Type             X           Y           Z
 ---------------------------------------------------------------------
      1          6           0       -6.404671    0.651888   -0.000001
      2          6           0       -4.836039    0.570742    0.000001
      3          1           0       -6.786459    1.010656    0.977092
      4          1           0       -6.856409   -0.341571   -0.195342
      5          1           0       -6.768979    1.348545   -0.781754
      6          1           0       -4.471731   -0.125915    0.781754
      7          1           0       -4.384301    1.564201    0.195342
      8          1           0       -4.454251    0.211974   -0.977092
 ---------------------------------------------------------------------
                    Distance matrix (angstroms):
                    1          2          3          4          5
     1  C    0.000000
     2  C    1.570730   0.000000
     3  H    1.108687   2.225392   0.000000
     4  H    1.108687   2.225392   1.791093   0.000000
     5  H    1.108687   2.225393   1.791093   1.791093   0.000000
     6  H    2.225393   1.108687   2.586100   2.586100   3.145780
     7  H    2.225392   1.108687   2.586099   3.145779   2.586100
     8  H    2.225392   1.108687   3.145778   2.586099   2.586100
                    6          7          8
     6  H    0.000000
     7  H    1.791093   0.000000
     8  H    1.791093   1.791093   0.000000
 Stoichiometry    C2H6
 Framework group  CI[X(C2H6)]
 Deg. of freedom     9
 Full point group                 CI      NOp   2
 Largest Abelian subgroup         CI      NOp   2
 Largest concise Abelian subgroup CI      NOp   2
                         Standard orientation:                         
 ---------------------------------------------------------------------
 Center     Atomic      Atomic             Coordinates (Angstroms)
 Number     Number       Type             X           Y           Z
 ---------------------------------------------------------------------
      1          6           0       -0.784316    0.040573   -0.000001
      2          6           0        0.784316   -0.040573    0.000001
      3          1           0       -1.166104    0.399341    0.977092
      4          1           0       -1.236054   -0.952886   -0.195342
      5          1           0       -1.148624    0.737230   -0.781754
      6          1           0        1.148624   -0.737230    0.781754
      7          1           0        1.236054    0.952886    0.195342
      8          1           0        1.166104   -0.399341   -0.977092
 ---------------------------------------------------------------------
 Rotational constants (GHZ):     78.1566392     19.0492854     19.0492838
 Standard basis: LANL2DZ (5D, 7F)
 There are    15 symmetry adapted cartesian basis functions of AG  symmetry.
 There are    15 symmetry adapted cartesian basis functions of AU  symmetry.
 There are    15 symmetry adapted basis functions of AG  symmetry.
 There are    15 symmetry adapted basis functions of AU  symmetry.
    30 basis functions,    74 primitive gaussians,    30 cartesian basis functions
     9 alpha electrons        9 beta electrons
       nuclear repulsion energy        41.3767399331 Hartrees.
 NAtoms=    8 NActive=    8 NUniq=    4 SFac= 4.00D+00 NAtFMM=   60 NAOKFM=F Big=F
 Integral buffers will be    131072 words long.
 Raffenetti 1 integral format.
 Two-electron integral symmetry is turned on.
 One-electron integrals computed using PRISM.
   2 Symmetry operations used in ECPInt.
 ECPInt:  NShTT=     253 NPrTT=    1559 LenC2=     254 LenP2D=    1400.
 LDataN:  DoStor=T MaxTD1= 2 Len=   12
 NBasis=    30 RedAO= T EigKep=  7.02D-03  NBF=    15    15
 NBsUse=    30 1.00D-06 EigRej= -1.00D+00 NBFU=    15    15
 Initial guess from the checkpoint file:  "/scr/Gau-29380.chk"
 B after Tr=     0.000000    0.000000    0.000000
         Rot=    1.000000    0.000000    0.000000    0.000000 Ang=   0.00 deg.
 Initial guess orbital symmetries:
       Occupied  (AG) (AU) (AG) (AU) (AU) (AU) (AG) (AG) (AG)
       Virtual   (AG) (AG) (AG) (AG) (AG) (AG) (AG) (AG) (AG) (AG)
                 (AU) (AU) (AU) (AU) (AU) (AU) (AU) (AU) (AU) (AU)
                 (AU)
 ExpMin= 1.15D-01 ExpMax= 4.23D+03 ExpMxC= 1.46D+02 IAcc=1 IRadAn=         1 AccDes= 0.00D+00
 Harris functional with IExCor=  205 and IRadAn=       1 diagonalized for initial guess.
 HarFok:  IExCor=  205 AccDes= 0.00D+00 IRadAn=         1 IDoV= 1 UseB2=F ITyADJ=14
 ICtDFT=  3500011 ScaDFX=  1.000000  1.000000  1.000000  1.000000
 FoFCou: FMM=F IPFlag=           0 FMFlag=      100000 FMFlg1=           0
         NFxFlg=           0 DoJE=T BraDBF=F KetDBF=T FulRan=T
         wScrn=  0.000000 ICntrl=     500 IOpCl=  0 I1Cent=   200000004 NGrid=           0
         NMat0=    1 NMatS0=      1 NMatT0=    0 NMatD0=    1 NMtDS0=    0 NMtDT0=    0
 Petite list used in FoFCou.
 Keep R1 ints in memory in symmetry-blocked form, NReq=955405.
 Requested convergence on RMS density matrix=1.00D-08 within 128 cycles.
 Requested convergence on MAX density matrix=1.00D-06.
 Requested convergence on             energy=1.00D-06.
 No special actions if energy rises.
 SCF Done:  E(RHF) =  -79.2031808020     A.U. after    8 cycles
            NFock=  8  Conv=0.56D-09     -V/T= 2.0013
 ExpMin= 1.15D-01 ExpMax= 4.23D+03 ExpMxC= 1.46D+02 IAcc=3 IRadAn=         5 AccDes= 0.00D+00
 HarFok:  IExCor=  205 AccDes= 0.00D+00 IRadAn=         5 IDoV=-2 UseB2=F ITyADJ=14
 ICtDFT= 12500011 ScaDFX=  1.000000  1.000000  1.000000  1.000000
 Range of M.O.s used for correlation:     3    30
 NBasis=    30 NAE=     9 NBE=     9 NFC=     2 NFV=     0
 NROrb=     28 NOA=     7 NOB=     7 NVA=    21 NVB=    21
 Semi-Direct transformation.
 ModeAB=           4 MOrb=             7 LenV=      33417501
 LASXX=        30133 LTotXX=       30133 LenRXX=       63623
 LTotAB=       33490 MaxLAS=       49392 LenRXY=           0
 NonZer=       93756 LenScr=      785920 LnRSAI=       49392
 LnScr1=      785920 LExtra=           0 Total=      1684855
 MaxDsk=          -1 SrtSym=           T ITran=            4
 JobTyp=0 Pass  1:  I=   1 to   7.
 (rs|ai) integrals will be sorted in core.
 Spin components of T(2) and E(2):
     alpha-alpha T2 =       0.7048450426D-02 E2=     -0.1599434517D-01
     alpha-beta  T2 =       0.5905850142D-01 E2=     -0.1476058187D+00
     beta-beta   T2 =       0.7048450426D-02 E2=     -0.1599434517D-01
 ANorm=    0.1035932142D+01
 E2 =    -0.1795945090D+00 EUMP2 =    -0.79382775311025D+02
 Keep R2 and R3 ints in memory in symmetry-blocked form, NReq=911112.
 Iterations=  50 Convergence= 0.100D-07
 Iteration Nr.   1
 **********************
 DD1Dir will call FoFMem   1 times, MxPair=        56
 NAB=    28 NAA=     0 NBB=     0.
 MP4(R+Q)=  0.12162286D-02
 E3=       -0.24205558D-01        EUMP3=      -0.79406980869D+02
 E4(DQ)=   -0.63293292D-02        UMP4(DQ)=   -0.79413310198D+02
 E4(SDQ)=  -0.65572976D-02        UMP4(SDQ)=  -0.79413538166D+02
 DE(Corr)= -0.20258297     E(Corr)=     -79.405763769    
 NORM(A)=   0.10476571D+01
 Iteration Nr.   2
 **********************
 DD1Dir will call FoFMem   1 times, MxPair=        56
 NAB=    28 NAA=     0 NBB=     0.
 DE(Corr)= -0.21018235     E(CORR)=     -79.413363148     Delta=-7.60D-03
 NORM(A)=   0.10517913D+01
 Iteration Nr.   3
 **********************
 DD1Dir will call FoFMem   1 times, MxPair=        56
 NAB=    28 NAA=     0 NBB=     0.
 DE(Corr)= -0.21270061     E(CORR)=     -79.415881416     Delta=-2.52D-03
 NORM(A)=   0.10522660D+01
 Iteration Nr.   4
 **********************
 DD1Dir will call FoFMem   1 times, MxPair=        56
 NAB=    28 NAA=     0 NBB=     0.
 DE(Corr)= -0.21305395     E(CORR)=     -79.416234749     Delta=-3.53D-04
 NORM(A)=   0.10523145D+01
 Iteration Nr.   5
 **********************
 DD1Dir will call FoFMem   1 times, MxPair=        56
 NAB=    28 NAA=     0 NBB=     0.
 DE(Corr)= -0.21307828     E(CORR)=     -79.416259083     Delta=-2.43D-05
 NORM(A)=   0.10523139D+01
 Iteration Nr.   6
 **********************
 DD1Dir will call FoFMem   1 times, MxPair=        56
 NAB=    28 NAA=     0 NBB=     0.
 DE(Corr)= -0.21307916     E(CORR)=     -79.416259965     Delta=-8.82D-07
 NORM(A)=   0.10523133D+01
 Iteration Nr.   7
 **********************
 DD1Dir will call FoFMem   1 times, MxPair=        56
 NAB=    28 NAA=     0 NBB=     0.
 DE(Corr)= -0.21307913     E(CORR)=     -79.416259928     Delta= 3.64D-08
 NORM(A)=   0.10523135D+01
 Iteration Nr.   8
 **********************
 DD1Dir will call FoFMem   1 times, MxPair=        56
 NAB=    28 NAA=     0 NBB=     0.
 DE(Corr)= -0.21307921     E(CORR)=     -79.416260013     Delta=-8.44D-08
 NORM(A)=   0.10523134D+01
 Iteration Nr.   9
 **********************
 DD1Dir will call FoFMem   1 times, MxPair=        56
 NAB=    28 NAA=     0 NBB=     0.
 DE(Corr)= -0.21307921     E(CORR)=     -79.416260010     Delta= 3.31D-09
 NORM(A)=   0.10523134D+01
 Iteration Nr.  10
 **********************
 DD1Dir will call FoFMem   1 times, MxPair=        56
 NAB=    28 NAA=     0 NBB=     0.
 DE(Corr)= -0.21307921     E(CORR)=     -79.416260011     Delta=-1.65D-09
 NORM(A)=   0.10523134D+01
 Iteration Nr.  11
 **********************
 DD1Dir will call FoFMem   1 times, MxPair=        56
 NAB=    28 NAA=     0 NBB=     0.
 DE(Corr)= -0.21307921     E(CORR)=     -79.416260011     Delta= 2.03D-10
 NORM(A)=   0.10523134D+01
 Largest amplitude= 5.26D-02

 Z-AMPLITUDE ITERATIONS

 Iteration Nr.   1
 **********************
 DD1Dir will call FoFMem   1 times, MxPair=        56
 NAB=    28 NAA=     0 NBB=     0.
 DE(Z)  -0.21043523D+00          E(Z)=    -0.79413616030D+02
 NORM(A)=   0.10523127D+01
 Iteration Nr.   2
 **********************
 DD1Dir will call FoFMem   1 times, MxPair=        56
 NAB=    28 NAA=     0 NBB=     0.
 DE(Z)  -0.21043496D+00          E(Z)=    -0.79413615767D+02
 NORM(A)=   0.10523258D+01
 Iteration Nr.   3
 **********************
 DD1Dir will call FoFMem   1 times, MxPair=        56
 NAB=    28 NAA=     0 NBB=     0.
 DE(Z)  -0.21043981D+00          E(Z)=    -0.79413620613D+02
 NORM(A)=   0.10523591D+01
 Iteration Nr.   4
 **********************
 DD1Dir will call FoFMem   1 times, MxPair=        56
 NAB=    28 NAA=     0 NBB=     0.
 DE(Z)  -0.21045198D+00          E(Z)=    -0.79413632783D+02
 NORM(A)=   0.10523570D+01
 Iteration Nr.   5
 **********************
 DD1Dir will call FoFMem   1 times, MxPair=        56
 NAB=    28 NAA=     0 NBB=     0.
 DE(Z)  -0.21045116D+00          E(Z)=    -0.79413631958D+02
 NORM(A)=   0.10506142D+01
 Iteration Nr.   6
 **********************
 DD1Dir will call FoFMem   1 times, MxPair=        56
 NAB=    28 NAA=     0 NBB=     0.
 DE(Z)  -0.20980169D+00          E(Z)=    -0.79412982487D+02
 NORM(A)=   0.10506143D+01
 Iteration Nr.   7
 **********************
 DD1Dir will call FoFMem   1 times, MxPair=        56
 NAB=    28 NAA=     0 NBB=     0.
 DE(Z)  -0.20980175D+00          E(Z)=    -0.79412982549D+02
 NORM(A)=   0.10506144D+01
 Iteration Nr.   8
 **********************
 DD1Dir will call FoFMem   1 times, MxPair=        56
 NAB=    28 NAA=     0 NBB=     0.
 DE(Z)  -0.20980176D+00          E(Z)=    -0.79412982566D+02
 NORM(A)=   0.10506144D+01
 Iteration Nr.   9
 **********************
 DD1Dir will call FoFMem   1 times, MxPair=        56
 NAB=    28 NAA=     0 NBB=     0.
 DE(Z)  -0.20980177D+00          E(Z)=    -0.79412982572D+02
 NORM(A)=   0.10506144D+01
 Discarding MO integrals.
          IDoAtm=11111111
          Differentiating once with respect to electric field.
                with respect to dipole field.
          Differentiating once with respect to nuclear coordinates.
 Keep R1 ints in memory in symmetry-blocked form, NReq=943610.
          There are     1 degrees of freedom in the 1st order CPHF.  IDoFFX=0 NUNeed=     1.
 LinEq1:  Iter=  0 NonCon=     1 RMS=2.09D-03 Max=1.18D-02 NDo=     1
 AX will form     1 AO Fock derivatives at one time.
 LinEq1:  Iter=  1 NonCon=     1 RMS=2.77D-04 Max=1.84D-03 NDo=     1
 LinEq1:  Iter=  2 NonCon=     1 RMS=7.98D-05 Max=4.37D-04 NDo=     1
 LinEq1:  Iter=  3 NonCon=     1 RMS=6.82D-06 Max=3.65D-05 NDo=     1
 LinEq1:  Iter=  4 NonCon=     1 RMS=3.55D-07 Max=2.45D-06 NDo=     1
 LinEq1:  Iter=  5 NonCon=     1 RMS=2.81D-08 Max=2.05D-07 NDo=     1
 LinEq1:  Iter=  6 NonCon=     1 RMS=2.49D-09 Max=1.56D-08 NDo=     1
 LinEq1:  Iter=  7 NonCon=     1 RMS=2.24D-10 Max=1.66D-09 NDo=     1
 LinEq1:  Iter=  8 NonCon=     0 RMS=1.99D-11 Max=1.43D-10 NDo=     1
 Linear equations converged to 1.000D-10 1.000D-09 after     8 iterations.
 End of Minotr F.D. properties file   721 does not exist.
 End of Minotr F.D. properties file   722 does not exist.
 End of Minotr F.D. properties file   788 does not exist.
   2 Symmetry operations used in ECPInt.
 ECPInt:  NShTT=     253 NPrTT=    1559 LenC2=     254 LenP2D=    1400.
 LDataN:  DoStor=T MaxTD1= 3 Len=   28
 Calling FoFJK, ICntrl=  10002127 FMM=F ISym2X=1 I1Cent= 0 IOpClX= 0 NMat=1 NMatS=1 NMatT=0.
 ***** Axes restored to original set *****
 -------------------------------------------------------------------
 Center     Atomic                   Forces (Hartrees/Bohr)
 Number     Number              X              Y              Z
 -------------------------------------------------------------------
      1        6           0.001942718   -0.000100605    0.000000257
      2        6          -0.001942718    0.000100605   -0.000000257
      3        1           0.000545437    0.000136520    0.000474725
      4        1           0.000511464   -0.000520486   -0.000094959
      5        1           0.000554086    0.000300621   -0.000379826
      6        1          -0.000554086   -0.000300621    0.000379826
      7        1          -0.000511464    0.000520486    0.000094959
      8        1          -0.000545437   -0.000136520   -0.000474725
 -------------------------------------------------------------------
 Cartesian Forces:  Max     0.001942718 RMS     0.000671376

 GradGradGradGradGradGradGradGradGradGradGradGradGradGradGradGradGradGrad
 Berny optimization.
 Using GEDIIS/GDIIS optimizer.
 FormGI is forming the generalized inverse of G from B-inverse, IUseBI=4.
 Internal  Forces:  Max     0.003558463 RMS     0.000821557
 Search for a local minimum.
 Step number   2 out of a maximum of   38
 All quantities printed in internal units (Hartrees-Bohrs-Radians)
 Mixed Optimization -- En-DIIS/RFO-DIIS
 Update second derivatives using D2CorX and points    1    2
 DE= -1.59D-03 DEPred=-1.80D-03 R= 8.87D-01
 TightC=F SS=  1.41D+00  RLast= 1.09D-01 DXNew= 5.0454D-01 3.2797D-01
 Trust test= 8.87D-01 RLast= 1.09D-01 DXMaxT set to 3.28D-01
 ITU=  1  0
 Use linear search instead of GDIIS.
     Eigenvalues ---    0.00280   0.05440   0.05440   0.05440   0.05440
     Eigenvalues ---    0.16000   0.16000   0.16000   0.16000   0.16000
     Eigenvalues ---    0.16714   0.31007   0.33613   0.34549   0.34549
     Eigenvalues ---    0.34549   0.34550   0.34550
 RFO step:  Lambda=-4.99012528D-05 EMin= 2.79920382D-03
 Quartic linear search produced a step of -0.07911.
 Iteration  1 RMS(Cart)=  0.00616487 RMS(Int)=  0.00000924
 Iteration  2 RMS(Cart)=  0.00001120 RMS(Int)=  0.00000041
 Iteration  3 RMS(Cart)=  0.00000000 RMS(Int)=  0.00000041
 ClnCor:  largest displacement from symmetrization is 1.30D-08 for atom     6.
 Variable       Old X    -DE/DX   Delta X   Delta X   Delta X     New X
                                 (Linear)    (Quad)   (Total)
    R1        2.96825  -0.00356  -0.00508  -0.00563  -0.01071   2.95754
    R2        2.09512   0.00027  -0.00245   0.00352   0.00107   2.09619
    R3        2.09512   0.00027  -0.00245   0.00352   0.00107   2.09619
    R4        2.09512   0.00027  -0.00245   0.00353   0.00107   2.09619
    R5        2.09512   0.00027  -0.00245   0.00353   0.00107   2.09619
    R6        2.09512   0.00027  -0.00245   0.00352   0.00107   2.09619
    R7        2.09512   0.00027  -0.00245   0.00352   0.00107   2.09619
    A1        1.93973  -0.00067  -0.00101  -0.00278  -0.00379   1.93593
    A2        1.93973  -0.00067  -0.00101  -0.00278  -0.00379   1.93593
    A3        1.93973  -0.00067  -0.00101  -0.00278  -0.00379   1.93593
    A4        1.88066   0.00071   0.00106   0.00294   0.00400   1.88467
    A5        1.88066   0.00071   0.00106   0.00294   0.00400   1.88467
    A6        1.88066   0.00071   0.00106   0.00294   0.00400   1.88467
    A7        1.93973  -0.00067  -0.00101  -0.00278  -0.00379   1.93593
    A8        1.93973  -0.00067  -0.00101  -0.00278  -0.00379   1.93593
    A9        1.93973  -0.00067  -0.00101  -0.00278  -0.00379   1.93593
   A10        1.88066   0.00071   0.00106   0.00294   0.00400   1.88467
   A11        1.88066   0.00071   0.00106   0.00294   0.00400   1.88467
   A12        1.88066   0.00071   0.00106   0.00294   0.00400   1.88467
    D1        1.04720   0.00000   0.00000   0.00000   0.00000   1.04720
    D2       -1.04720   0.00000   0.00000   0.00000   0.00000  -1.04720
    D3        3.14159   0.00000   0.00000   0.00000   0.00000   3.14159
    D4       -1.04720   0.00000   0.00000   0.00000   0.00000  -1.04720
    D5        3.14159   0.00000   0.00000   0.00000   0.00000   3.14159
    D6        1.04720   0.00000   0.00000   0.00000   0.00000   1.04720
    D7        3.14159   0.00000   0.00000   0.00000   0.00000   3.14159
    D8        1.04720   0.00000   0.00000   0.00000   0.00000   1.04720
    D9       -1.04720   0.00000   0.00000   0.00000   0.00000  -1.04720
         Item               Value     Threshold  Converged?
 Maximum Force            0.003558     0.000450     NO 
 RMS     Force            0.000822     0.000300     NO 
 Maximum Displacement     0.012503     0.001800     NO 
 RMS     Displacement     0.006174     0.001200     NO 
 Predicted change in Energy=-3.540565D-05
 GradGradGradGradGradGradGradGradGradGradGradGradGradGradGradGradGradGrad

                          Input orientation:                          
 ---------------------------------------------------------------------
 Center     Atomic      Atomic             Coordinates (Angstroms)
 Number     Number       Type             X           Y           Z
 ---------------------------------------------------------------------
      1          6           0       -6.401842    0.651742   -0.000001
      2          6           0       -4.838868    0.570888    0.000001
      3          1           0       -6.779878    1.010984    0.979020
      4          1           0       -6.849966   -0.343910   -0.195727
      5          1           0       -6.762363    1.349539   -0.783295
      6          1           0       -4.478347   -0.126909    0.783295
      7          1           0       -4.390744    1.566540    0.195727
      8          1           0       -4.460832    0.211646   -0.979020
 ---------------------------------------------------------------------
                    Distance matrix (angstroms):
                    1          2          3          4          5
     1  C    0.000000
     2  C    1.565063   0.000000
     3  H    1.109255   2.218035   0.000000
     4  H    1.109255   2.218035   1.794625   0.000000
     5  H    1.109255   2.218035   1.794625   1.794625   0.000000
     6  H    2.218035   1.109255   2.574908   2.574908   3.138603
     7  H    2.218035   1.109255   2.574908   3.138603   2.574908
     8  H    2.218035   1.109255   3.138604   2.574908   2.574908
                    6          7          8
     6  H    0.000000
     7  H    1.794625   0.000000
     8  H    1.794625   1.794625   0.000000
 This structure is nearly, but not quite of a higher symmetry.
 Consider Symm=Loose if the higher symmetry is desired.
 Stoichiometry    C2H6
 Framework group  CI[X(C2H6)]
 Deg. of freedom     9
 Full point group                 CI      NOp   2
 Largest Abelian subgroup         CI      NOp   2
 Largest concise Abelian subgroup CI      NOp   2
                         Standard orientation:                         
 ---------------------------------------------------------------------
 Center     Atomic      Atomic             Coordinates (Angstroms)
 Number     Number       Type             X           Y           Z
 ---------------------------------------------------------------------
      1          6           0       -0.781487    0.040427   -0.000001
      2          6           0        0.781487   -0.040427    0.000001
      3          1           0       -1.159523    0.399669    0.979020
      4          1           0       -1.229611   -0.955225   -0.195727
      5          1           0       -1.142008    0.738224   -0.783295
      6          1           0        1.142008   -0.738224    0.783295
      7          1           0        1.229611    0.955225    0.195727
      8          1           0        1.159523   -0.399669   -0.979020
 ---------------------------------------------------------------------
 Rotational constants (GHZ):     77.8492473     19.1849067     19.1849066
 Standard basis: LANL2DZ (5D, 7F)
 There are    15 symmetry adapted cartesian basis functions of AG  symmetry.
 There are    15 symmetry adapted cartesian basis functions of AU  symmetry.
 There are    15 symmetry adapted basis functions of AG  symmetry.
 There are    15 symmetry adapted basis functions of AU  symmetry.
    30 basis functions,    74 primitive gaussians,    30 cartesian basis functions
     9 alpha electrons        9 beta electrons
       nuclear repulsion energy        41.4432480071 Hartrees.
 NAtoms=    8 NActive=    8 NUniq=    4 SFac= 4.00D+00 NAtFMM=   60 NAOKFM=F Big=F
 Integral buffers will be    131072 words long.
 Raffenetti 1 integral format.
 Two-electron integral symmetry is turned on.
 One-electron integrals computed using PRISM.
   2 Symmetry operations used in ECPInt.
 ECPInt:  NShTT=     253 NPrTT=    1559 LenC2=     254 LenP2D=    1400.
 LDataN:  DoStor=T MaxTD1= 2 Len=   12
 NBasis=    30 RedAO= T EigKep=  6.99D-03  NBF=    15    15
 NBsUse=    30 1.00D-06 EigRej= -1.00D+00 NBFU=    15    15
 Initial guess from the checkpoint file:  "/scr/Gau-29380.chk"
 B after Tr=     0.000000    0.000000    0.000000
         Rot=    1.000000    0.000000    0.000000    0.000000 Ang=   0.00 deg.
 Initial guess orbital symmetries:
       Occupied  (AG) (AU) (AG) (AU) (AU) (AU) (AG) (AG) (AG)
       Virtual   (AG) (AG) (AG) (AG) (AG) (AG) (AG) (AG) (AG) (AG)
                 (AU) (AU) (AU) (AU) (AU) (AU) (AU) (AU) (AU) (AU)
                 (AU)
 Keep R1 ints in memory in symmetry-blocked form, NReq=955405.
 Requested convergence on RMS density matrix=1.00D-08 within 128 cycles.
 Requested convergence on MAX density matrix=1.00D-06.
 Requested convergence on             energy=1.00D-06.
 No special actions if energy rises.
 SCF Done:  E(RHF) =  -79.2032837501     A.U. after    7 cycles
            NFock=  7  Conv=0.17D-08     -V/T= 2.0012
 ExpMin= 1.15D-01 ExpMax= 4.23D+03 ExpMxC= 1.46D+02 IAcc=3 IRadAn=         5 AccDes= 0.00D+00
 HarFok:  IExCor=  205 AccDes= 0.00D+00 IRadAn=         5 IDoV=-2 UseB2=F ITyADJ=14
 ICtDFT= 12500011 ScaDFX=  1.000000  1.000000  1.000000  1.000000
 Range of M.O.s used for correlation:     3    30
 NBasis=    30 NAE=     9 NBE=     9 NFC=     2 NFV=     0
 NROrb=     28 NOA=     7 NOB=     7 NVA=    21 NVB=    21
 Semi-Direct transformation.
 ModeAB=           4 MOrb=             7 LenV=      33417501
 LASXX=        30133 LTotXX=       30133 LenRXX=       63623
 LTotAB=       33490 MaxLAS=       49392 LenRXY=           0
 NonZer=       93756 LenScr=      785920 LnRSAI=       49392
 LnScr1=      785920 LExtra=           0 Total=      1684855
 MaxDsk=          -1 SrtSym=           T ITran=            4
 JobTyp=0 Pass  1:  I=   1 to   7.
 (rs|ai) integrals will be sorted in core.
 Spin components of T(2) and E(2):
     alpha-alpha T2 =       0.7040265288D-02 E2=     -0.1598868307D-01
     alpha-beta  T2 =       0.5900150372D-01 E2=     -0.1475503197D+00
     beta-beta   T2 =       0.7040265288D-02 E2=     -0.1598868307D-01
 ANorm=    0.1035896730D+01
 E2 =    -0.1795276859D+00 EUMP2 =    -0.79382811435968D+02
 Keep R2 and R3 ints in memory in symmetry-blocked form, NReq=911112.
 Iterations=  50 Convergence= 0.100D-07
 Iteration Nr.   1
 **********************
 DD1Dir will call FoFMem   1 times, MxPair=        56
 NAB=    28 NAA=     0 NBB=     0.
 MP4(R+Q)=  0.12152929D-02
 E3=       -0.24209310D-01        EUMP3=      -0.79407020746D+02
 E4(DQ)=   -0.63265383D-02        UMP4(DQ)=   -0.79413347285D+02
 E4(SDQ)=  -0.65541370D-02        UMP4(SDQ)=  -0.79413574883D+02
 DE(Corr)= -0.20252090     E(Corr)=     -79.405804649    
 NORM(A)=   0.10476212D+01
 Iteration Nr.   2
 **********************
 DD1Dir will call FoFMem   1 times, MxPair=        56
 NAB=    28 NAA=     0 NBB=     0.
 DE(Corr)= -0.21011762     E(CORR)=     -79.413401372     Delta=-7.60D-03
 NORM(A)=   0.10517473D+01
 Iteration Nr.   3
 **********************
 DD1Dir will call FoFMem   1 times, MxPair=        56
 NAB=    28 NAA=     0 NBB=     0.
 DE(Corr)= -0.21263134     E(CORR)=     -79.415915094     Delta=-2.51D-03
 NORM(A)=   0.10522204D+01
 Iteration Nr.   4
 **********************
 DD1Dir will call FoFMem   1 times, MxPair=        56
 NAB=    28 NAA=     0 NBB=     0.
 DE(Corr)= -0.21298382     E(CORR)=     -79.416267572     Delta=-3.52D-04
 NORM(A)=   0.10522687D+01
 Iteration Nr.   5
 **********************
 DD1Dir will call FoFMem   1 times, MxPair=        56
 NAB=    28 NAA=     0 NBB=     0.
 DE(Corr)= -0.21300810     E(CORR)=     -79.416291847     Delta=-2.43D-05
 NORM(A)=   0.10522681D+01
 Iteration Nr.   6
 **********************
 DD1Dir will call FoFMem   1 times, MxPair=        56
 NAB=    28 NAA=     0 NBB=     0.
 DE(Corr)= -0.21300897     E(CORR)=     -79.416292723     Delta=-8.76D-07
 NORM(A)=   0.10522675D+01
 Iteration Nr.   7
 **********************
 DD1Dir will call FoFMem   1 times, MxPair=        56
 NAB=    28 NAA=     0 NBB=     0.
 DE(Corr)= -0.21300894     E(CORR)=     -79.416292686     Delta= 3.64D-08
 NORM(A)=   0.10522676D+01
 Iteration Nr.   8
 **********************
 DD1Dir will call FoFMem   1 times, MxPair=        56
 NAB=    28 NAA=     0 NBB=     0.
 DE(Corr)= -0.21300902     E(CORR)=     -79.416292770     Delta=-8.40D-08
 NORM(A)=   0.10522675D+01
 Iteration Nr.   9
 **********************
 DD1Dir will call FoFMem   1 times, MxPair=        56
 NAB=    28 NAA=     0 NBB=     0.
 DE(Corr)= -0.21300902     E(CORR)=     -79.416292767     Delta= 3.15D-09
 NORM(A)=   0.10522676D+01
 Iteration Nr.  10
 **********************
 DD1Dir will call FoFMem   1 times, MxPair=        56
 NAB=    28 NAA=     0 NBB=     0.
 DE(Corr)= -0.21300902     E(CORR)=     -79.416292769     Delta=-1.62D-09
 NORM(A)=   0.10522676D+01
 Iteration Nr.  11
 **********************
 DD1Dir will call FoFMem   1 times, MxPair=        56
 NAB=    28 NAA=     0 NBB=     0.
 DE(Corr)= -0.21300902     E(CORR)=     -79.416292769     Delta= 2.50D-10
 NORM(A)=   0.10522676D+01
 Largest amplitude= 5.23D-02

 Z-AMPLITUDE ITERATIONS

 Iteration Nr.   1
 **********************
 DD1Dir will call FoFMem   1 times, MxPair=        56
 NAB=    28 NAA=     0 NBB=     0.
 DE(Z)  -0.21036889D+00          E(Z)=    -0.79413652642D+02
 NORM(A)=   0.10522670D+01
 Iteration Nr.   2
 **********************
 DD1Dir will call FoFMem   1 times, MxPair=        56
 NAB=    28 NAA=     0 NBB=     0.
 DE(Z)  -0.21036868D+00          E(Z)=    -0.79413652429D+02
 NORM(A)=   0.10522631D+01
 Iteration Nr.   3
 **********************
 DD1Dir will call FoFMem   1 times, MxPair=        56
 NAB=    28 NAA=     0 NBB=     0.
 DE(Z)  -0.21036725D+00          E(Z)=    -0.79413651000D+02
 NORM(A)=   0.10522778D+01
 Iteration Nr.   4
 **********************
 DD1Dir will call FoFMem   1 times, MxPair=        56
 NAB=    28 NAA=     0 NBB=     0.
 DE(Z)  -0.21037263D+00          E(Z)=    -0.79413656383D+02
 NORM(A)=   0.10522785D+01
 Iteration Nr.   5
 **********************
 DD1Dir will call FoFMem   1 times, MxPair=        56
 NAB=    28 NAA=     0 NBB=     0.
 DE(Z)  -0.21037288D+00          E(Z)=    -0.79413656632D+02
 NORM(A)=   0.10505716D+01
 Iteration Nr.   6
 **********************
 DD1Dir will call FoFMem   1 times, MxPair=        56
 NAB=    28 NAA=     0 NBB=     0.
 DE(Z)  -0.20973591D+00          E(Z)=    -0.79413019664D+02
 NORM(A)=   0.10505717D+01
 Iteration Nr.   7
 **********************
 DD1Dir will call FoFMem   1 times, MxPair=        56
 NAB=    28 NAA=     0 NBB=     0.
 DE(Z)  -0.20973596D+00          E(Z)=    -0.79413019706D+02
 NORM(A)=   0.10505718D+01
 Iteration Nr.   8
 **********************
 DD1Dir will call FoFMem   1 times, MxPair=        56
 NAB=    28 NAA=     0 NBB=     0.
 DE(Z)  -0.20973599D+00          E(Z)=    -0.79413019739D+02
 NORM(A)=   0.10505718D+01
 Iteration Nr.   9
 **********************
 DD1Dir will call FoFMem   1 times, MxPair=        56
 NAB=    28 NAA=     0 NBB=     0.
 DE(Z)  -0.20973599D+00          E(Z)=    -0.79413019743D+02
 NORM(A)=   0.10505718D+01
 Discarding MO integrals.
          IDoAtm=11111111
          Differentiating once with respect to electric field.
                with respect to dipole field.
          Differentiating once with respect to nuclear coordinates.
 Keep R1 ints in memory in symmetry-blocked form, NReq=943610.
          There are     1 degrees of freedom in the 1st order CPHF.  IDoFFX=0 NUNeed=     1.
 LinEq1:  Iter=  0 NonCon=     1 RMS=2.09D-03 Max=1.18D-02 NDo=     1
 AX will form     1 AO Fock derivatives at one time.
 LinEq1:  Iter=  1 NonCon=     1 RMS=2.74D-04 Max=1.86D-03 NDo=     1
 LinEq1:  Iter=  2 NonCon=     1 RMS=8.08D-05 Max=4.40D-04 NDo=     1
 LinEq1:  Iter=  3 NonCon=     1 RMS=6.82D-06 Max=3.53D-05 NDo=     1
 LinEq1:  Iter=  4 NonCon=     1 RMS=3.56D-07 Max=2.38D-06 NDo=     1
 LinEq1:  Iter=  5 NonCon=     1 RMS=2.82D-08 Max=2.07D-07 NDo=     1
 LinEq1:  Iter=  6 NonCon=     1 RMS=2.53D-09 Max=1.57D-08 NDo=     1
 LinEq1:  Iter=  7 NonCon=     1 RMS=2.27D-10 Max=1.67D-09 NDo=     1
 LinEq1:  Iter=  8 NonCon=     0 RMS=2.00D-11 Max=1.41D-10 NDo=     1
 Linear equations converged to 1.000D-10 1.000D-09 after     8 iterations.
 End of Minotr F.D. properties file   721 does not exist.
 End of Minotr F.D. properties file   722 does not exist.
 End of Minotr F.D. properties file   788 does not exist.
   2 Symmetry operations used in ECPInt.
 ECPInt:  NShTT=     253 NPrTT=    1559 LenC2=     254 LenP2D=    1400.
 LDataN:  DoStor=T MaxTD1= 3 Len=   28
 Calling FoFJK, ICntrl=  10002127 FMM=F ISym2X=1 I1Cent= 0 IOpClX= 0 NMat=1 NMatS=1 NMatT=0.
 ***** Axes restored to original set *****
 -------------------------------------------------------------------
 Center     Atomic                   Forces (Hartrees/Bohr)
 Number     Number              X              Y              Z
 -------------------------------------------------------------------
      1        6          -0.000069248    0.000003609    0.000000001
      2        6           0.000069248   -0.000003609   -0.000000001
      3        1          -0.000036493   -0.000053053   -0.000158340
      4        1          -0.000025170    0.000166064    0.000031649
      5        1          -0.000039356   -0.000107795    0.000126667
      6        1           0.000039356    0.000107795   -0.000126667
      7        1           0.000025170   -0.000166064   -0.000031649
      8        1           0.000036493    0.000053053    0.000158340
 -------------------------------------------------------------------
 Cartesian Forces:  Max     0.000166064 RMS     0.000087774

 GradGradGradGradGradGradGradGradGradGradGradGradGradGradGradGradGradGrad
 Berny optimization.
 Using GEDIIS/GDIIS optimizer.
 FormGI is forming the generalized inverse of G from B-inverse, IUseBI=4.
 Internal  Forces:  Max     0.000170496 RMS     0.000096119
 Search for a local minimum.
 Step number   3 out of a maximum of   38
 All quantities printed in internal units (Hartrees-Bohrs-Radians)
 Mixed Optimization -- En-DIIS/RFO-DIIS
 Swapping is turned off.
 Update second derivatives using D2CorX and points    1    2    3
 DE= -3.28D-05 DEPred=-3.54D-05 R= 9.25D-01
 TightC=F SS=  1.41D+00  RLast= 1.74D-02 DXNew= 5.5158D-01 5.2316D-02
 Trust test= 9.25D-01 RLast= 1.74D-02 DXMaxT set to 3.28D-01
 ITU=  1  1  0
     Eigenvalues ---    0.00280   0.05480   0.05480   0.05480   0.05480
     Eigenvalues ---    0.16000   0.16000   0.16000   0.16000   0.16000
     Eigenvalues ---    0.17682   0.31730   0.34028   0.34549   0.34549
     Eigenvalues ---    0.34549   0.34550   0.34550
 En-DIIS/RFO-DIIS IScMMF=        0 using points:     3    2
 RFO step:  Lambda=-4.95850840D-07.
 DidBck=F Rises=F RFO-DIIS coefs:    0.91041    0.08959
 Iteration  1 RMS(Cart)=  0.00057266 RMS(Int)=  0.00000037
 Iteration  2 RMS(Cart)=  0.00000018 RMS(Int)=  0.00000034
 ClnCor:  largest displacement from symmetrization is 7.06D-09 for atom     8.
 Variable       Old X    -DE/DX   Delta X   Delta X   Delta X     New X
                                 (Linear)    (Quad)   (Total)
    R1        2.95754   0.00017   0.00096  -0.00057   0.00039   2.95793
    R2        2.09619  -0.00014  -0.00010  -0.00032  -0.00041   2.09577
    R3        2.09619  -0.00014  -0.00010  -0.00032  -0.00041   2.09577
    R4        2.09619  -0.00014  -0.00010  -0.00032  -0.00041   2.09577
    R5        2.09619  -0.00014  -0.00010  -0.00032  -0.00041   2.09577
    R6        2.09619  -0.00014  -0.00010  -0.00032  -0.00041   2.09577
    R7        2.09619  -0.00014  -0.00010  -0.00032  -0.00041   2.09577
    A1        1.93593   0.00009   0.00034   0.00014   0.00048   1.93641
    A2        1.93593   0.00009   0.00034   0.00014   0.00048   1.93641
    A3        1.93593   0.00009   0.00034   0.00014   0.00048   1.93641
    A4        1.88467  -0.00010  -0.00036  -0.00014  -0.00050   1.88417
    A5        1.88467  -0.00010  -0.00036  -0.00014  -0.00050   1.88417
    A6        1.88467  -0.00010  -0.00036  -0.00014  -0.00050   1.88417
    A7        1.93593   0.00009   0.00034   0.00014   0.00048   1.93641
    A8        1.93593   0.00009   0.00034   0.00014   0.00048   1.93641
    A9        1.93593   0.00009   0.00034   0.00014   0.00048   1.93641
   A10        1.88467  -0.00010  -0.00036  -0.00014  -0.00050   1.88417
   A11        1.88467  -0.00010  -0.00036  -0.00014  -0.00050   1.88417
   A12        1.88467  -0.00010  -0.00036  -0.00014  -0.00050   1.88417
    D1        1.04720   0.00000   0.00000   0.00000   0.00000   1.04720
    D2       -1.04720   0.00000   0.00000   0.00000   0.00000  -1.04720
    D3        3.14159   0.00000   0.00000   0.00000   0.00000   3.14159
    D4       -1.04720   0.00000   0.00000   0.00000   0.00000  -1.04720
    D5        3.14159   0.00000   0.00000   0.00000   0.00000   3.14159
    D6        1.04720   0.00000   0.00000   0.00000   0.00000   1.04720
    D7        3.14159   0.00000   0.00000   0.00000   0.00000   3.14159
    D8        1.04720   0.00000   0.00000   0.00000   0.00000   1.04720
    D9       -1.04720   0.00000   0.00000   0.00000   0.00000  -1.04720
         Item               Value     Threshold  Converged?
 Maximum Force            0.000170     0.000450     YES
 RMS     Force            0.000096     0.000300     YES
 Maximum Displacement     0.001005     0.001800     YES
 RMS     Displacement     0.000573     0.001200     YES
 Predicted change in Energy=-4.871519D-07
 Optimization completed.
    -- Stationary point found.
                           ----------------------------
                           !   Optimized Parameters   !
                           ! (Angstroms and Degrees)  !
 --------------------------                            --------------------------
 ! Name  Definition              Value          Derivative Info.                !
 --------------------------------------------------------------------------------
 ! R1    R(1,2)                  1.5651         -DE/DX =    0.0002              !
 ! R2    R(1,3)                  1.1093         -DE/DX =   -0.0001              !
 ! R3    R(1,4)                  1.1093         -DE/DX =   -0.0001              !
 ! R4    R(1,5)                  1.1093         -DE/DX =   -0.0001              !
 ! R5    R(2,6)                  1.1093         -DE/DX =   -0.0001              !
 ! R6    R(2,7)                  1.1093         -DE/DX =   -0.0001              !
 ! R7    R(2,8)                  1.1093         -DE/DX =   -0.0001              !
 ! A1    A(2,1,3)              110.9208         -DE/DX =    0.0001              !
 ! A2    A(2,1,4)              110.9208         -DE/DX =    0.0001              !
 ! A3    A(2,1,5)              110.9208         -DE/DX =    0.0001              !
 ! A4    A(3,1,4)              107.9836         -DE/DX =   -0.0001              !
 ! A5    A(3,1,5)              107.9836         -DE/DX =   -0.0001              !
 ! A6    A(4,1,5)              107.9836         -DE/DX =   -0.0001              !
 ! A7    A(1,2,6)              110.9208         -DE/DX =    0.0001              !
 ! A8    A(1,2,7)              110.9208         -DE/DX =    0.0001              !
 ! A9    A(1,2,8)              110.9208         -DE/DX =    0.0001              !
 ! A10   A(6,2,7)              107.9836         -DE/DX =   -0.0001              !
 ! A11   A(6,2,8)              107.9836         -DE/DX =   -0.0001              !
 ! A12   A(7,2,8)              107.9836         -DE/DX =   -0.0001              !
 ! D1    D(3,1,2,6)             60.0            -DE/DX =    0.0                 !
 ! D2    D(3,1,2,7)            -60.0            -DE/DX =    0.0                 !
 ! D3    D(3,1,2,8)            180.0            -DE/DX =    0.0                 !
 ! D4    D(4,1,2,6)            -60.0            -DE/DX =    0.0                 !
 ! D5    D(4,1,2,7)            180.0            -DE/DX =    0.0                 !
 ! D6    D(4,1,2,8)             60.0            -DE/DX =    0.0                 !
 ! D7    D(5,1,2,6)            180.0            -DE/DX =    0.0                 !
 ! D8    D(5,1,2,7)             60.0            -DE/DX =    0.0                 !
 ! D9    D(5,1,2,8)            -60.0            -DE/DX =    0.0                 !
 --------------------------------------------------------------------------------
 GradGradGradGradGradGradGradGradGradGradGradGradGradGradGradGradGradGrad

                          Input orientation:                          
 ---------------------------------------------------------------------
 Center     Atomic      Atomic             Coordinates (Angstroms)
 Number     Number       Type             X           Y           Z
 ---------------------------------------------------------------------
      1          6           0       -6.401842    0.651742   -0.000001
      2          6           0       -4.838868    0.570888    0.000001
      3          1           0       -6.779878    1.010984    0.979020
      4          1           0       -6.849966   -0.343910   -0.195727
      5          1           0       -6.762363    1.349539   -0.783295
      6          1           0       -4.478347   -0.126909    0.783295
      7          1           0       -4.390744    1.566540    0.195727
      8          1           0       -4.460832    0.211646   -0.979020
 ---------------------------------------------------------------------
                    Distance matrix (angstroms):
                    1          2          3          4          5
     1  C    0.000000
     2  C    1.565063   0.000000
     3  H    1.109255   2.218035   0.000000
     4  H    1.109255   2.218035   1.794625   0.000000
     5  H    1.109255   2.218035   1.794625   1.794625   0.000000
     6  H    2.218035   1.109255   2.574908   2.574908   3.138603
     7  H    2.218035   1.109255   2.574908   3.138603   2.574908
     8  H    2.218035   1.109255   3.138604   2.574908   2.574908
                    6          7          8
     6  H    0.000000
     7  H    1.794625   0.000000
     8  H    1.794625   1.794625   0.000000
 This structure is nearly, but not quite of a higher symmetry.
 Consider Symm=Loose if the higher symmetry is desired.
 Stoichiometry    C2H6
 Framework group  CI[X(C2H6)]
 Deg. of freedom     9
 Full point group                 CI      NOp   2
 Largest Abelian subgroup         CI      NOp   2
 Largest concise Abelian subgroup CI      NOp   2
                         Standard orientation:                         
 ---------------------------------------------------------------------
 Center     Atomic      Atomic             Coordinates (Angstroms)
 Number     Number       Type             X           Y           Z
 ---------------------------------------------------------------------
      1          6           0       -0.781487    0.040427   -0.000001
      2          6           0        0.781487   -0.040427    0.000001
      3          1           0       -1.159523    0.399669    0.979020
      4          1           0       -1.229611   -0.955225   -0.195727
      5          1           0       -1.142008    0.738224   -0.783295
      6          1           0        1.142008   -0.738224    0.783295
      7          1           0        1.229611    0.955225    0.195727
      8          1           0        1.159523   -0.399669   -0.979020
 ---------------------------------------------------------------------
 Rotational constants (GHZ):     77.8492473     19.1849067     19.1849066

 **********************************************************************

            Population analysis using the SCF density.

 **********************************************************************

 Orbital symmetries:
       Occupied  (AG) (AU) (AG) (AU) (AU) (AU) (AG) (AG) (AG)
       Virtual   (AU) (AG) (AG) (AG) (AU) (AU) (AU) (AG) (AU) (AU)
                 (AG) (AG) (AU) (AG) (AU) (AG) (AU) (AU) (AG) (AG)
                 (AU)
 The electronic state is 1-AG.
 Alpha  occ. eigenvalues --  -11.22154 -11.22103  -1.00735  -0.83847  -0.58849
 Alpha  occ. eigenvalues --   -0.58849  -0.49750  -0.48225  -0.48225
 Alpha virt. eigenvalues --    0.24885   0.27044   0.32086   0.32086   0.35889
 Alpha virt. eigenvalues --    0.35889   0.38871   0.45685   0.46892   0.46892
 Alpha virt. eigenvalues --    0.51851   0.51851   0.72253   1.15476   1.27984
 Alpha virt. eigenvalues --    1.33421   1.37806   1.37806   1.40591   1.40591
 Alpha virt. eigenvalues --    1.60982
          Condensed to atoms (all electrons):
               1          2          3          4          5          6
     1  C    5.216841   0.274530   0.380522   0.380522   0.380522  -0.044671
     2  C    0.274530   5.216841  -0.044671  -0.044671  -0.044671   0.380522
     3  H    0.380522  -0.044671   0.549074  -0.025361  -0.025361  -0.001703
     4  H    0.380522  -0.044671  -0.025361   0.549074  -0.025361  -0.001703
     5  H    0.380522  -0.044671  -0.025361  -0.025361   0.549074   0.002895
     6  H   -0.044671   0.380522  -0.001703  -0.001703   0.002895   0.549074
     7  H   -0.044671   0.380522  -0.001703   0.002895  -0.001703  -0.025361
     8  H   -0.044671   0.380522   0.002895  -0.001703  -0.001703  -0.025361
               7          8
     1  C   -0.044671  -0.044671
     2  C    0.380522   0.380522
     3  H   -0.001703   0.002895
     4  H    0.002895  -0.001703
     5  H   -0.001703  -0.001703
     6  H   -0.025361  -0.025361
     7  H    0.549074  -0.025361
     8  H   -0.025361   0.549074
 Mulliken charges:
               1
     1  C   -0.498925
     2  C   -0.498925
     3  H    0.166308
     4  H    0.166308
     5  H    0.166308
     6  H    0.166308
     7  H    0.166308
     8  H    0.166308
 Sum of Mulliken charges =   0.00000
 Mulliken charges with hydrogens summed into heavy atoms:
               1
     1  C    0.000000
     2  C    0.000000
 Electronic spatial extent (au):  <R**2>=            113.0412
 Charge=              0.0000 electrons
 Dipole moment (field-independent basis, Debye):
    X=              0.0000    Y=              0.0000    Z=              0.0000  Tot=              0.0000
 Quadrupole moment (field-independent basis, Debye-Ang):
   XX=            -15.6612   YY=            -15.0581   ZZ=            -15.0564
   XY=              0.0313   XZ=              0.0000   YZ=              0.0000
 Traceless Quadrupole moment (field-independent basis, Debye-Ang):
   XX=             -0.4027   YY=              0.2005   ZZ=              0.2021
   XY=              0.0313   XZ=              0.0000   YZ=              0.0000
 Octapole moment (field-independent basis, Debye-Ang**2):
  XXX=              0.0000  YYY=              0.0000  ZZZ=              0.0000  XYY=              0.0000
  XXY=              0.0000  XXZ=              0.0000  XZZ=              0.0000  YZZ=              0.0000
  YYZ=              0.0000  XYZ=              0.0000
 Hexadecapole moment (field-independent basis, Debye-Ang**3):
 XXXX=            -97.8729 YYYY=            -29.9649 ZZZZ=            -29.5659 XXXY=              1.9636
 XXXZ=              0.0058 YYYX=              2.7092 YYYZ=             -0.1134 ZZZX=             -0.7328
 ZZZY=              0.0379 XXYY=            -19.9596 XXZZ=            -20.1485 YYZZ=             -9.7645
 XXYZ=              0.0755 YYXZ=              0.7269 ZZXY=             -0.6119
 N-N= 4.144324800710D+01 E-N=-2.665476231556D+02  KE= 7.910931227779D+01
 Symmetry AG   KE= 4.102084413507D+01
 Symmetry AU   KE= 3.808846814272D+01
 1\1\GINC-N0286\FOpt\RCCSD-FC\LANL2DZ\C2H6\GDAVIDS3\21-Feb-2017\0\\#n C
 CSD/LANL2DZ Opt\\Ethane CCSD LANL2DZ\\0,1\C,-6.401841783,0.6517417519,
 -0.0000005845\C,-4.838868217,0.5708882481,0.0000005845\H,-6.7798777748
 ,1.0109843347,0.9790196203\H,-6.8499663221,-0.3439100723,-0.195726831\
 H,-6.7623626073,1.3495388335,-0.783295469\H,-4.4783473927,-0.126908833
 5,0.783295469\H,-4.3907436779,1.5665400723,0.195726831\H,-4.4608322252
 ,0.2116456653,-0.9790196203\\Version=ES64L-G09RevE.01\State=1-AG\HF=-7
 9.2032838\MP2=-79.3828114\MP3=-79.4070207\MP4D=-79.4145626\MP4DQ=-79.4
 133473\MP4SDQ=-79.4135749\CCSD=-79.4162928\RMSD=1.654e-09\RMSF=8.777e-
 05\Dipole=0.,0.,0.\PG=CI [X(C2H6)]\\@


 YOU CANNOT THROW TO THE GROUND THE LETTERS OF
 THE GREEK ALPHABET AND PICK UP THE ILIAD.
        - RUFUS CHOATE, 1799-1859
 Job cpu time:       0 days  0 hours  1 minutes 16.7 seconds.
 File lengths (MBytes):  RWF=     19 Int=      0 D2E=      0 Chk=      1 Scr=      1
 Normal termination of Gaussian 09 at Tue Feb 21 17:38:22 2017.
