 Entering Gaussian System, Link 0=g09
 Input=HMI.com
 Output=HMI.log
 Initial command:
 /gscratch/pfaendtner/codes/G09/g09/l1.exe /gscratch/pfaendtner/wesley/gaussian/Gau-22284.inp -scrdir=/gscratch/pfaendtner/wesley/gaussian/
 Entering Link 1 = /gscratch/pfaendtner/codes/G09/g09/l1.exe PID=     22306.
  
 Copyright (c) 1988,1990,1992,1993,1995,1998,2003,2009, Gaussian, Inc.
                  All Rights Reserved.
  
 This is part of the Gaussian(R) 09 program.  It is based on
 the Gaussian(R) 03 system (copyright 2003, Gaussian, Inc.),
 the Gaussian(R) 98 system (copyright 1998, Gaussian, Inc.),
 the Gaussian(R) 94 system (copyright 1995, Gaussian, Inc.),
 the Gaussian 92(TM) system (copyright 1992, Gaussian, Inc.),
 the Gaussian 90(TM) system (copyright 1990, Gaussian, Inc.),
 the Gaussian 88(TM) system (copyright 1988, Gaussian, Inc.),
 the Gaussian 86(TM) system (copyright 1986, Carnegie Mellon
 University), and the Gaussian 82(TM) system (copyright 1983,
 Carnegie Mellon University). Gaussian is a federally registered
 trademark of Gaussian, Inc.
  
 This software contains proprietary and confidential information,
 including trade secrets, belonging to Gaussian, Inc.
  
 This software is provided under written license and may be
 used, copied, transmitted, or stored only in accord with that
 written license.
  
 The following legend is applicable only to US Government
 contracts under FAR:
  
                    RESTRICTED RIGHTS LEGEND
  
 Use, reproduction and disclosure by the US Government is
 subject to restrictions as set forth in subparagraphs (a)
 and (c) of the Commercial Computer Software - Restricted
 Rights clause in FAR 52.227-19.
  
 Gaussian, Inc.
 340 Quinnipiac St., Bldg. 40, Wallingford CT 06492
  
  
 ---------------------------------------------------------------
 Warning -- This program may not be used in any manner that
 competes with the business of Gaussian, Inc. or will provide
 assistance to any competitor of Gaussian, Inc.  The licensee
 of this program is prohibited from giving any competitor of
 Gaussian, Inc. access to this program.  By using this program,
 the user acknowledges that Gaussian, Inc. is engaged in the
 business of creating and licensing software in the field of
 computational chemistry and represents and warrants to the
 licensee that it is not a competitor of Gaussian, Inc. and that
 it will not use this program in any manner prohibited above.
 ---------------------------------------------------------------
  

 Cite this work as:
 Gaussian 09, Revision A.02,
 M. J. Frisch, G. W. Trucks, H. B. Schlegel, G. E. Scuseria, 
 M. A. Robb, J. R. Cheeseman, G. Scalmani, V. Barone, B. Mennucci, 
 G. A. Petersson, H. Nakatsuji, M. Caricato, X. Li, H. P. Hratchian, 
 A. F. Izmaylov, J. Bloino, G. Zheng, J. L. Sonnenberg, M. Hada, 
 M. Ehara, K. Toyota, R. Fukuda, J. Hasegawa, M. Ishida, T. Nakajima, 
 Y. Honda, O. Kitao, H. Nakai, T. Vreven, J. A. Montgomery, Jr., 
 J. E. Peralta, F. Ogliaro, M. Bearpark, J. J. Heyd, E. Brothers, 
 K. N. Kudin, V. N. Staroverov, R. Kobayashi, J. Normand, 
 K. Raghavachari, A. Rendell, J. C. Burant, S. S. Iyengar, J. Tomasi, 
 M. Cossi, N. Rega, J. M. Millam, M. Klene, J. E. Knox, J. B. Cross, 
 V. Bakken, C. Adamo, J. Jaramillo, R. Gomperts, R. E. Stratmann, 
 O. Yazyev, A. J. Austin, R. Cammi, C. Pomelli, J. W. Ochterski, 
 R. L. Martin, K. Morokuma, V. G. Zakrzewski, G. A. Voth, 
 P. Salvador, J. J. Dannenberg, S. Dapprich, A. D. Daniels, 
 O. Farkas, J. B. Foresman, J. V. Ortiz, J. Cioslowski, 
 and D. J. Fox, Gaussian, Inc., Wallingford CT, 2009.
 
 ******************************************
 Gaussian 09:  EM64L-G09RevA.02 11-Jun-2009
                 8-Mar-2017 
 ******************************************
 %chk=HMI.chk
 %nprocshared=16
 Will use up to   16 processors via shared memory.
 --------------------------------------
 # opt M062X/6-311+G* geom=connectivity
 --------------------------------------
 1/14=-1,18=20,19=15,26=3,38=1,57=2/1,3;
 2/9=110,12=2,17=6,18=5,40=1/2;
 3/5=4,6=6,7=11,11=2,16=1,25=1,30=1,71=1,74=-55/1,2,3;
 4//1;
 5/5=2,38=5/2;
 6/7=2,8=2,9=2,10=2,28=1/1;
 7//1,2,3,16;
 1/14=-1,18=20,19=15/3(2);
 2/9=110/2;
 99//99;
 2/9=110/2;
 3/5=4,6=6,7=11,11=2,16=1,25=1,30=1,71=1,74=-55/1,2,3;
 4/5=5,16=3/1;
 5/5=2,38=5/2;
 7//1,2,3,16;
 1/14=-1,18=20,19=15/3(-5);
 2/9=110/2;
 6/7=2,8=2,9=2,10=2,19=2,28=1/1;
 99/9=1/99;
 -------------------
 Title Card Required
 -------------------
 Symbolic Z-matrix:
 Charge =  0 Multiplicity = 2
 C(PDBName=C1,ResName=HMI,ResNum=1)  0.035    -0.965    -0.211 
 C(PDBName=C2,ResName=HMI,ResNum=1)  1.374    -0.982    -0.135 
 C(PDBName=C3,ResName=HMI,ResNum=1)  0.709     1.075     0.137 
 N(PDBName=N1,ResName=HMI,ResNum=1) -0.367     0.341    -0.034 
 H(PDBName=H1,ResName=HMI,ResNum=1) -0.664    -1.756    -0.367 
 H(PDBName=H2,ResName=HMI,ResNum=1)  2.07     -1.789    -0.213 
 H(PDBName=H3,ResName=HMI,ResNum=1)  0.712     2.132     0.3 
 N(PDBName=N2,ResName=HMI,ResNum=1)  1.782     0.316     0.084 
 C(PDBName=C4,ResName=HMI,ResNum=1) -1.76      0.832    -0.07 
 H(PDBName=H4,ResName=HMI,ResNum=1) -1.76      1.806     0.398 
 H(PDBName=H5,ResName=HMI,ResNum=1) -2.342     0.168     0.555 
 C(PDBName=C5,ResName=HMI,ResNum=1) -2.314     0.899    -1.491 
 H(PDBName=H6,ResName=HMI,ResNum=1) -2.264    -0.087    -1.945 
 H(PDBName=H7,ResName=HMI,ResNum=1) -1.684     1.553    -2.088 
 C(PDBName=C6,ResName=HMI,ResNum=1) -3.759     1.404    -1.506 
 H(PDBName=H8,ResName=HMI,ResNum=1) -4.378     0.749    -0.897 
 H(PDBName=H9,ResName=HMI,ResNum=1) -3.803     2.388    -1.044 
 C(PDBName=C7,ResName=HMI,ResNum=1) -4.339     1.481    -2.92 
 H(PDBName=H10,ResName=HMI,ResNum=1) -3.718     2.136    -3.529 
 H(PDBName=H11,ResName=HMI,ResNum=1) -4.293     0.497    -3.382 
 C(PDBName=C8,ResName=HMI,ResNum=1) -5.783     1.986    -2.945 
 H(PDBName=H12,ResName=HMI,ResNum=1) -6.403     1.332    -2.336 
 H(PDBName=H13,ResName=HMI,ResNum=1) -5.829     2.97     -2.483 
 C(PDBName=C9,ResName=HMI,ResNum=1) -6.359     2.061    -4.359 
 H(PDBName=H14,ResName=HMI,ResNum=1) -7.381     2.422    -4.343 
 H(PDBName=H15,ResName=HMI,ResNum=1) -5.78      2.735    -4.983 
 H(PDBName=H16,ResName=HMI,ResNum=1) -6.359     1.086    -4.835 
 C(PDBName=C10,ResName=HMI,ResNum=1)  3.17      0.761     0.238 
 H(PDBName=H17,ResName=HMI,ResNum=1)  3.612     0.267     1.091 
 H(PDBName=H18,ResName=HMI,ResNum=1)  3.723     0.523    -0.658 
 H(PDBName=H19,ResName=HMI,ResNum=1)  3.18      1.828     0.395 
 

 GradGradGradGradGradGradGradGradGradGradGradGradGradGradGradGradGradGrad
 Berny optimization.
 Initialization pass.
                           ----------------------------
                           !    Initial Parameters    !
                           ! (Angstroms and Degrees)  !
 --------------------------                            --------------------------
 ! Name  Definition              Value          Derivative Info.                !
 --------------------------------------------------------------------------------
 ! R1    R(1,2)                  1.3413         estimate D2E/DX2                !
 ! R2    R(1,4)                  1.3779         estimate D2E/DX2                !
 ! R3    R(1,5)                  1.0671         estimate D2E/DX2                !
 ! R4    R(2,6)                  1.0685         estimate D2E/DX2                !
 ! R5    R(2,8)                  1.3781         estimate D2E/DX2                !
 ! R6    R(3,4)                  1.3137         estimate D2E/DX2                !
 ! R7    R(3,7)                  1.0695         estimate D2E/DX2                !
 ! R8    R(3,8)                  1.3154         estimate D2E/DX2                !
 ! R9    R(4,9)                  1.4774         estimate D2E/DX2                !
 ! R10   R(8,28)                 1.4657         estimate D2E/DX2                !
 ! R11   R(9,10)                 1.0806         estimate D2E/DX2                !
 ! R12   R(9,11)                 1.0818         estimate D2E/DX2                !
 ! R13   R(9,12)                 1.5266         estimate D2E/DX2                !
 ! R14   R(12,13)                1.0867         estimate D2E/DX2                !
 ! R15   R(12,14)                1.0867         estimate D2E/DX2                !
 ! R16   R(12,15)                1.5308         estimate D2E/DX2                !
 ! R17   R(15,16)                1.0877         estimate D2E/DX2                !
 ! R18   R(15,17)                1.088          estimate D2E/DX2                !
 ! R19   R(15,18)                1.5303         estimate D2E/DX2                !
 ! R20   R(18,19)                1.0888         estimate D2E/DX2                !
 ! R21   R(18,20)                1.088          estimate D2E/DX2                !
 ! R22   R(18,21)                1.53           estimate D2E/DX2                !
 ! R23   R(21,22)                1.0877         estimate D2E/DX2                !
 ! R24   R(21,23)                1.088          estimate D2E/DX2                !
 ! R25   R(21,24)                1.5287         estimate D2E/DX2                !
 ! R26   R(24,25)                1.084          estimate D2E/DX2                !
 ! R27   R(24,26)                1.0858         estimate D2E/DX2                !
 ! R28   R(24,27)                1.085          estimate D2E/DX2                !
 ! R29   R(28,29)                1.0803         estimate D2E/DX2                !
 ! R30   R(28,30)                1.0795         estimate D2E/DX2                !
 ! R31   R(28,31)                1.0785         estimate D2E/DX2                !
 ! A1    A(2,1,4)              107.2171         estimate D2E/DX2                !
 ! A2    A(2,1,5)              130.7571         estimate D2E/DX2                !
 ! A3    A(4,1,5)              122.0242         estimate D2E/DX2                !
 ! A4    A(1,2,6)              130.9729         estimate D2E/DX2                !
 ! A5    A(1,2,8)              107.015          estimate D2E/DX2                !
 ! A6    A(6,2,8)              122.0119         estimate D2E/DX2                !
 ! A7    A(4,3,7)              125.0534         estimate D2E/DX2                !
 ! A8    A(4,3,8)              109.9072         estimate D2E/DX2                !
 ! A9    A(7,3,8)              125.0387         estimate D2E/DX2                !
 ! A10   A(1,4,3)              107.899          estimate D2E/DX2                !
 ! A11   A(1,4,9)              125.9402         estimate D2E/DX2                !
 ! A12   A(3,4,9)              126.1389         estimate D2E/DX2                !
 ! A13   A(2,8,3)              107.9612         estimate D2E/DX2                !
 ! A14   A(2,8,28)             125.6627         estimate D2E/DX2                !
 ! A15   A(3,8,28)             126.375          estimate D2E/DX2                !
 ! A16   A(4,9,10)             106.7978         estimate D2E/DX2                !
 ! A17   A(4,9,11)             106.8095         estimate D2E/DX2                !
 ! A18   A(4,9,12)             112.2973         estimate D2E/DX2                !
 ! A19   A(10,9,11)            107.6398         estimate D2E/DX2                !
 ! A20   A(10,9,12)            111.3192         estimate D2E/DX2                !
 ! A21   A(11,9,12)            111.6832         estimate D2E/DX2                !
 ! A22   A(9,12,13)            109.4124         estimate D2E/DX2                !
 ! A23   A(9,12,14)            109.1093         estimate D2E/DX2                !
 ! A24   A(9,12,15)            111.4785         estimate D2E/DX2                !
 ! A25   A(13,12,14)           106.8498         estimate D2E/DX2                !
 ! A26   A(13,12,15)           109.7966         estimate D2E/DX2                !
 ! A27   A(14,12,15)           110.0788         estimate D2E/DX2                !
 ! A28   A(12,15,16)           109.4545         estimate D2E/DX2                !
 ! A29   A(12,15,17)           109.4141         estimate D2E/DX2                !
 ! A30   A(12,15,18)           112.5466         estimate D2E/DX2                !
 ! A31   A(16,15,17)           106.4917         estimate D2E/DX2                !
 ! A32   A(16,15,18)           109.3881         estimate D2E/DX2                !
 ! A33   A(17,15,18)           109.3628         estimate D2E/DX2                !
 ! A34   A(15,18,19)           109.3247         estimate D2E/DX2                !
 ! A35   A(15,18,20)           109.3189         estimate D2E/DX2                !
 ! A36   A(15,18,21)           112.919          estimate D2E/DX2                !
 ! A37   A(19,18,20)           106.4056         estimate D2E/DX2                !
 ! A38   A(19,18,21)           109.3048         estimate D2E/DX2                !
 ! A39   A(20,18,21)           109.3585         estimate D2E/DX2                !
 ! A40   A(18,21,22)           109.2921         estimate D2E/DX2                !
 ! A41   A(18,21,23)           109.3585         estimate D2E/DX2                !
 ! A42   A(18,21,24)           112.7642         estimate D2E/DX2                !
 ! A43   A(22,21,23)           106.3764         estimate D2E/DX2                !
 ! A44   A(22,21,24)           109.4287         estimate D2E/DX2                !
 ! A45   A(23,21,24)           109.4187         estimate D2E/DX2                !
 ! A46   A(21,24,25)           110.9734         estimate D2E/DX2                !
 ! A47   A(21,24,26)           111.1692         estimate D2E/DX2                !
 ! A48   A(21,24,27)           111.2058         estimate D2E/DX2                !
 ! A49   A(25,24,26)           107.7291         estimate D2E/DX2                !
 ! A50   A(25,24,27)           107.8027         estimate D2E/DX2                !
 ! A51   A(26,24,27)           107.8001         estimate D2E/DX2                !
 ! A52   A(8,28,29)            109.3652         estimate D2E/DX2                !
 ! A53   A(8,28,30)            109.3281         estimate D2E/DX2                !
 ! A54   A(8,28,31)            108.9314         estimate D2E/DX2                !
 ! A55   A(29,28,30)           110.1803         estimate D2E/DX2                !
 ! A56   A(29,28,31)           109.4912         estimate D2E/DX2                !
 ! A57   A(30,28,31)           109.5236         estimate D2E/DX2                !
 ! D1    D(4,1,2,6)            179.6431         estimate D2E/DX2                !
 ! D2    D(4,1,2,8)             -0.1856         estimate D2E/DX2                !
 ! D3    D(5,1,2,6)              0.1001         estimate D2E/DX2                !
 ! D4    D(5,1,2,8)           -179.7285         estimate D2E/DX2                !
 ! D5    D(2,1,4,3)              0.2222         estimate D2E/DX2                !
 ! D6    D(2,1,4,9)            178.5991         estimate D2E/DX2                !
 ! D7    D(5,1,4,3)            179.8138         estimate D2E/DX2                !
 ! D8    D(5,1,4,9)             -1.8092         estimate D2E/DX2                !
 ! D9    D(1,2,8,3)              0.0853         estimate D2E/DX2                !
 ! D10   D(1,2,8,28)           179.7294         estimate D2E/DX2                !
 ! D11   D(6,2,8,3)           -179.7621         estimate D2E/DX2                !
 ! D12   D(6,2,8,28)            -0.118          estimate D2E/DX2                !
 ! D13   D(7,3,4,1)           -179.8896         estimate D2E/DX2                !
 ! D14   D(7,3,4,9)              1.7375         estimate D2E/DX2                !
 ! D15   D(8,3,4,1)             -0.1717         estimate D2E/DX2                !
 ! D16   D(8,3,4,9)           -178.5446         estimate D2E/DX2                !
 ! D17   D(4,3,8,2)              0.0557         estimate D2E/DX2                !
 ! D18   D(4,3,8,28)          -179.5853         estimate D2E/DX2                !
 ! D19   D(7,3,8,2)            179.7737         estimate D2E/DX2                !
 ! D20   D(7,3,8,28)             0.1327         estimate D2E/DX2                !
 ! D21   D(1,4,9,10)           162.7791         estimate D2E/DX2                !
 ! D22   D(1,4,9,11)            47.8268         estimate D2E/DX2                !
 ! D23   D(1,4,9,12)           -74.9278         estimate D2E/DX2                !
 ! D24   D(3,4,9,10)           -19.1335         estimate D2E/DX2                !
 ! D25   D(3,4,9,11)          -134.0858         estimate D2E/DX2                !
 ! D26   D(3,4,9,12)           103.1596         estimate D2E/DX2                !
 ! D27   D(2,8,28,29)          -60.5025         estimate D2E/DX2                !
 ! D28   D(2,8,28,30)           60.2134         estimate D2E/DX2                !
 ! D29   D(2,8,28,31)          179.8641         estimate D2E/DX2                !
 ! D30   D(3,8,28,29)          119.0771         estimate D2E/DX2                !
 ! D31   D(3,8,28,30)         -120.207          estimate D2E/DX2                !
 ! D32   D(3,8,28,31)           -0.5563         estimate D2E/DX2                !
 ! D33   D(4,9,12,13)           58.1212         estimate D2E/DX2                !
 ! D34   D(4,9,12,14)          -58.4527         estimate D2E/DX2                !
 ! D35   D(4,9,12,15)          179.7596         estimate D2E/DX2                !
 ! D36   D(10,9,12,13)         177.813          estimate D2E/DX2                !
 ! D37   D(10,9,12,14)          61.2391         estimate D2E/DX2                !
 ! D38   D(10,9,12,15)         -60.5487         estimate D2E/DX2                !
 ! D39   D(11,9,12,13)         -61.8399         estimate D2E/DX2                !
 ! D40   D(11,9,12,14)        -178.4138         estimate D2E/DX2                !
 ! D41   D(11,9,12,15)          59.7985         estimate D2E/DX2                !
 ! D42   D(9,12,15,16)         -58.1498         estimate D2E/DX2                !
 ! D43   D(9,12,15,17)          58.1906         estimate D2E/DX2                !
 ! D44   D(9,12,15,18)         179.99           estimate D2E/DX2                !
 ! D45   D(13,12,15,16)         63.2655         estimate D2E/DX2                !
 ! D46   D(13,12,15,17)        179.6059         estimate D2E/DX2                !
 ! D47   D(13,12,15,18)        -58.5947         estimate D2E/DX2                !
 ! D48   D(14,12,15,16)       -179.3745         estimate D2E/DX2                !
 ! D49   D(14,12,15,17)        -63.034          estimate D2E/DX2                !
 ! D50   D(14,12,15,18)         58.7653         estimate D2E/DX2                !
 ! D51   D(12,15,18,19)        -58.0397         estimate D2E/DX2                !
 ! D52   D(12,15,18,20)         58.0702         estimate D2E/DX2                !
 ! D53   D(12,15,18,21)       -179.9525         estimate D2E/DX2                !
 ! D54   D(16,15,18,19)       -179.9375         estimate D2E/DX2                !
 ! D55   D(16,15,18,20)        -63.8277         estimate D2E/DX2                !
 ! D56   D(16,15,18,21)         58.1496         estimate D2E/DX2                !
 ! D57   D(17,15,18,19)         63.7888         estimate D2E/DX2                !
 ! D58   D(17,15,18,20)        179.8986         estimate D2E/DX2                !
 ! D59   D(17,15,18,21)        -58.124          estimate D2E/DX2                !
 ! D60   D(15,18,21,22)        -58.0339         estimate D2E/DX2                !
 ! D61   D(15,18,21,23)         58.0449         estimate D2E/DX2                !
 ! D62   D(15,18,21,24)       -179.9773         estimate D2E/DX2                !
 ! D63   D(19,18,21,22)       -179.9579         estimate D2E/DX2                !
 ! D64   D(19,18,21,23)        -63.8791         estimate D2E/DX2                !
 ! D65   D(19,18,21,24)         58.0987         estimate D2E/DX2                !
 ! D66   D(20,18,21,22)         63.9213         estimate D2E/DX2                !
 ! D67   D(20,18,21,23)        180.0            estimate D2E/DX2                !
 ! D68   D(20,18,21,24)        -58.0221         estimate D2E/DX2                !
 ! D69   D(18,21,24,25)       -179.9708         estimate D2E/DX2                !
 ! D70   D(18,21,24,26)        -60.0917         estimate D2E/DX2                !
 ! D71   D(18,21,24,27)         60.0328         estimate D2E/DX2                !
 ! D72   D(22,21,24,25)         58.1629         estimate D2E/DX2                !
 ! D73   D(22,21,24,26)        178.042          estimate D2E/DX2                !
 ! D74   D(22,21,24,27)        -61.8335         estimate D2E/DX2                !
 ! D75   D(23,21,24,25)        -58.0269         estimate D2E/DX2                !
 ! D76   D(23,21,24,26)         61.8522         estimate D2E/DX2                !
 ! D77   D(23,21,24,27)       -178.0233         estimate D2E/DX2                !
 --------------------------------------------------------------------------------
 Trust Radius=3.00D-01 FncErr=1.00D-07 GrdErr=1.00D-06
 Number of steps in this run= 175 maximum allowed number of steps= 186.
 GradGradGradGradGradGradGradGradGradGradGradGradGradGradGradGradGradGrad

                          Input orientation:                          
 ---------------------------------------------------------------------
 Center     Atomic      Atomic             Coordinates (Angstroms)
 Number     Number       Type             X           Y           Z
 ---------------------------------------------------------------------
      1          6           0        0.035000   -0.965000   -0.211000
      2          6           0        1.374000   -0.982000   -0.135000
      3          6           0        0.709000    1.075000    0.137000
      4          7           0       -0.367000    0.341000   -0.034000
      5          1           0       -0.664000   -1.756000   -0.367000
      6          1           0        2.070000   -1.789000   -0.213000
      7          1           0        0.712000    2.132000    0.300000
      8          7           0        1.782000    0.316000    0.084000
      9          6           0       -1.760000    0.832000   -0.070000
     10          1           0       -1.760000    1.806000    0.398000
     11          1           0       -2.342000    0.168000    0.555000
     12          6           0       -2.314000    0.899000   -1.491000
     13          1           0       -2.264000   -0.087000   -1.945000
     14          1           0       -1.684000    1.553000   -2.088000
     15          6           0       -3.759000    1.404000   -1.506000
     16          1           0       -4.378000    0.749000   -0.897000
     17          1           0       -3.803000    2.388000   -1.044000
     18          6           0       -4.339000    1.481000   -2.920000
     19          1           0       -3.718000    2.136000   -3.529000
     20          1           0       -4.293000    0.497000   -3.382000
     21          6           0       -5.783000    1.986000   -2.945000
     22          1           0       -6.403000    1.332000   -2.336000
     23          1           0       -5.829000    2.970000   -2.483000
     24          6           0       -6.359000    2.061000   -4.359000
     25          1           0       -7.381000    2.422000   -4.343000
     26          1           0       -5.780000    2.735000   -4.983000
     27          1           0       -6.359000    1.086000   -4.835000
     28          6           0        3.170000    0.761000    0.238000
     29          1           0        3.612000    0.267000    1.091000
     30          1           0        3.723000    0.523000   -0.658000
     31          1           0        3.180000    1.828000    0.395000
 ---------------------------------------------------------------------
                    Distance matrix (angstroms):
                    1          2          3          4          5
     1  C    0.000000
     2  C    1.341263   0.000000
     3  C    2.176460   2.178866   0.000000
     4  N    1.377886   2.188975   1.313687   0.000000
     5  H    1.067060   2.192338   3.186488   2.143947   0.000000
     6  H    2.195497   1.068527   3.190191   3.241591   2.738533
     7  H    3.211053   3.213171   1.069498   2.117422   4.177895
     8  N    2.186320   1.378125   1.315378   2.152382   3.237206
     9  C    2.543839   3.621709   2.489550   1.477439   2.826158
    10  H    3.357283   4.228355   2.588135   2.067196   3.804509
    11  H    2.742366   3.950602   3.210292   2.068206   2.714322
    12  C    3.260475   4.356402   3.438007   2.494999   3.321882
    13  H    3.010488   4.160789   3.810997   2.726484   2.799222
    14  H    3.580281   4.426262   3.302356   2.724399   3.866746
    15  C    4.656568   5.824116   4.771867   3.847391   4.567488
    16  H    4.783614   6.054957   5.201250   4.123027   4.511067
    17  H    5.163985   6.243758   4.845294   4.125095   5.242555
    18  C    5.696795   6.816228   5.915437   5.040375   5.522826
    19  H    5.891548   6.868015   5.844964   5.163938   5.871356
    20  H    5.560959   6.696666   6.143081   5.162065   5.228372
    21  C    7.073350   8.241831   7.243943   6.364982   6.844911
    22  H    7.158190   8.407183   7.534077   6.535639   6.807997
    23  H    7.418403   8.544859   7.293893   6.537789   7.313669
    24  C    8.200355   9.322087   8.434621   7.587364   7.933384
    25  H    9.140145  10.292935   9.345208   8.490833   8.853381
    26  H    8.383091   9.407386   8.430725   7.715206   8.224962
    27  H    8.152988   9.282560   8.641616   7.714188   7.776440
    28  C    3.606786   2.530374   2.483006   3.572220   4.626107
    29  H    4.000995   2.841077   3.160758   4.135643   4.949997
    30  H    4.001912   2.838372   3.165584   4.141328   4.952201
    31  H    4.249601   3.382105   2.596038   3.869938   5.310559
                    6          7          8          9         10
     6  H    0.000000
     7  H    4.181097   0.000000
     8  N    2.145269   2.118823   0.000000
     9  C    4.643166   2.817390   3.582700   0.000000
    10  H    5.288312   2.495328   3.855445   1.080602   0.000000
    11  H    4.887271   3.639950   4.153447   1.081779   1.745399
    12  C    5.298876   3.726211   4.426932   1.526645   2.167461
    13  H    4.967915   4.338267   4.544157   2.148069   3.054032
    14  H    5.364430   3.431997   4.273278   2.144281   2.499996
    15  C    6.770845   4.876624   5.866389   2.526911   2.789771
    16  H    6.963189   5.408660   6.252635   2.746769   3.106155
    17  H    7.254655   4.717743   6.062821   2.746573   2.567477
    18  C    7.687394   6.025347   6.917216   3.898069   4.214972
    19  H    7.739666   5.855438   6.827603   4.183164   4.400454
    20  H    7.467002   6.424980   6.996538   4.183020   4.734762
    21  C    9.131487   7.261981   8.318231   5.077585   5.233792
    22  H    9.275748   7.629661   8.595515   5.190588   5.408963
    23  H    9.497114   7.157654   8.459345   5.191375   5.119748
    24  C   10.151840   8.468197   9.437222   6.407555   6.621546
    25  H   11.140504   9.334784  10.392023   7.237560   7.379172
    26  H   10.239237   8.391648   9.418593   6.627170   6.780752
    27  H   10.033770   8.801215   9.542816   6.627258   7.003820
    28  C    2.813521   2.815182   1.465703   4.940122   5.042075
    29  H    2.881895   3.537500   2.089342   5.524991   5.630911
    30  H    2.876765   3.545810   2.088275   5.523089   5.729268
    31  H    3.832030   2.488466   2.082611   5.060814   4.940050
                   11         12         13         14         15
    11  H    0.000000
    12  C    2.172846   0.000000
    13  H    2.514182   1.086652   0.000000
    14  H    3.055591   1.086750   1.745408   0.000000
    15  C    2.789858   1.530776   2.156578   2.160220   0.000000
    16  H    2.567326   2.153005   2.503237   3.053282   1.087689
    17  H    3.101568   2.152685   3.050565   2.505458   1.087950
    18  C    4.217535   2.545857   2.777566   2.783241   1.530270
    19  H    4.737664   2.766736   3.092717   2.559986   2.151751
    20  H    4.406201   2.766573   2.553990   3.097814   2.151088
    21  C    5.234081   3.915309   4.204841   4.209957   2.550690
    22  H    5.119033   4.197789   4.392922   4.730677   2.772151
    23  H    5.407385   4.198610   4.726935   4.398288   2.773407
    24  C    6.623227   5.092906   5.216352   5.222177   3.915515
    25  H    7.379867   6.010651   6.182975   6.188376   4.712088
    26  H    7.005625   5.251487   5.436486   5.153190   4.236217
    27  H    6.784623   5.251603   5.147529   5.442400   4.235961
    28  C    5.552863   5.751760   5.917174   5.440483   7.173983
    29  H    5.978897   6.494892   6.623442   6.309315   7.897393
    30  H    6.195290   6.105787   6.154075   5.686954   7.581266
    31  H    5.768335   5.882523   6.227356   5.468035   7.207170
                   16         17         18         19         20
    16  H    0.000000
    17  H    1.743145   0.000000
    18  C    2.151714   2.151586   0.000000
    19  H    3.047424   2.499191   1.088828   0.000000
    20  H    2.499191   3.046674   1.088033   1.743145   0.000000
    21  C    2.774617   2.774131   1.529963   2.151228   2.151323
    22  H    2.551712   3.089401   2.150198   3.046127   2.498688
    23  H    3.090896   2.552278   2.151323   2.499198   3.046839
    24  C    4.198946   4.198725   2.547061   2.769369   2.769293
    25  H    4.867428   4.866892   3.487718   3.763238   3.763627
    26  H    4.754492   4.420934   2.811577   2.593214   3.127781
    27  H    4.421060   4.753948   2.811343   3.127781   2.593547
    28  C    7.632868   7.274159   8.177802   7.970286   8.298823
    29  H    8.247701   8.002443   8.987787   8.863772   9.085684
    30  H    8.107675   7.763240   8.427945   8.137130   8.466233
    31  H    7.743182   7.151686   8.224658   7.941980   8.478385
                   21         22         23         24         25
    21  C    0.000000
    22  H    1.087657   0.000000
    23  H    1.088033   1.741875   0.000000
    24  C    1.528659   2.150792   2.150943   0.000000
    25  H    2.167511   2.484478   2.483668   1.084002   0.000000
    26  H    2.171279   3.059926   2.511499   1.085768   1.752361
    27  H    2.171146   2.511464   3.059781   1.084989   1.752554
    28  C    9.580622   9.929443   9.657408  10.659468  11.621879
    29  H   10.368717  10.638552  10.450462  11.503990  12.450640
    30  H    9.886090  10.295924  10.027918  10.849404  11.852605
    31  H    9.566396   9.976887   9.526234  10.660550  11.590349
                   26         27         28         29         30
    26  H    0.000000
    27  H    1.753952   0.000000
    28  C   10.547892  10.800129   0.000000
    29  H   11.454002  11.627944   1.080282   0.000000
    30  H   10.672656  10.927535   1.079476   1.771118   0.000000
    31  H   10.489382  10.903944   1.078535   1.762884   1.762579
                   31
    31  H    0.000000
 Stoichiometry    C10H19N2(2)
 Framework group  C1[X(C10H19N2)]
 Deg. of freedom    87
 Full point group                 C1      NOp   1
 Largest Abelian subgroup         C1      NOp   1
 Largest concise Abelian subgroup C1      NOp   1
                         Standard orientation:                         
 ---------------------------------------------------------------------
 Center     Atomic      Atomic             Coordinates (Angstroms)
 Number     Number       Type             X           Y           Z
 ---------------------------------------------------------------------
      1          6           0       -2.206657    1.369071   -0.182762
      2          6           0       -3.426801    1.008340   -0.607155
      3          6           0       -2.531627   -0.701381    0.404267
      4          7           0       -1.657994    0.278351    0.455883
      5          1           0       -1.684558    2.295608   -0.269702
      6          1           0       -4.175031    1.557265   -1.136855
      7          1           0       -2.386391   -1.676378    0.819135
      8          7           0       -3.614107   -0.303357   -0.228214
      9          6           0       -0.309895    0.212891    1.056858
     10          1           0       -0.306631   -0.636595    1.724737
     11          1           0       -0.192244    1.103813    1.659072
     12          6           0        0.788779    0.094952    0.003459
     13          1           0        0.732958    0.943399   -0.673176
     14          1           0        0.614890   -0.796198   -0.593733
     15          6           0        2.176965    0.034525    0.645771
     16          1           0        2.335894    0.925248    1.249443
     17          1           0        2.223719   -0.812560    1.326871
     18          6           0        3.297761   -0.084263   -0.389328
     19          1           0        3.137062   -0.975566   -0.993730
     20          1           0        3.249237    0.762242   -1.071158
     21          6           0        4.689247   -0.146495    0.243664
     22          1           0        4.849266    0.743573    0.847957
     23          1           0        4.737772   -0.993000    0.925493
     24          6           0        5.806095   -0.264553   -0.793404
     25          1           0        6.777558   -0.306880   -0.314312
     26          1           0        5.692724   -1.163903   -1.391074
     27          1           0        5.805975    0.584666   -1.468702
     28          6           0       -4.815796   -1.103052   -0.482608
     29          1           0       -5.664935   -0.635189   -0.006082
     30          1           0       -4.978782   -1.174268   -1.547330
     31          1           0       -4.672199   -2.090436   -0.073110
 ---------------------------------------------------------------------
 Rotational constants (GHZ):      3.3730673      0.2527222      0.2500094
 Standard basis: 6-311+G(d) (5D, 7F)
 There are   321 symmetry adapted basis functions of A   symmetry.
 Integral buffers will be    131072 words long.
 Raffenetti 2 integral format.
 Two-electron integral symmetry is turned on.
   321 basis functions,   527 primitive gaussians,   333 cartesian basis functions
    47 alpha electrons       46 beta electrons
       nuclear repulsion energy       688.7731584514 Hartrees.
 NAtoms=   31 NActive=   31 NUniq=   31 SFac= 7.50D-01 NAtFMM=   80 NAOKFM=F Big=F
 One-electron integrals computed using PRISM.
 PrsmSu:  requested number of processors reduced to:  10 ShMem   1 Linda.
 NBasis=   321 RedAO= T  NBF=   321
 NBsUse=   321 1.00D-06 NBFU=   321
 Harris functional with IExCor= 1009 diagonalized for initial guess.
 ExpMin= 4.38D-02 ExpMax= 6.29D+03 ExpMxC= 9.49D+02 IAcc=2 IRadAn=         0 AccDes= 0.00D+00
 HarFok:  IExCor= 1009 AccDes= 0.00D+00 IRadAn=         0 IDoV= 1
 ScaDFX=  1.000000  1.000000  1.000000  1.000000
 FoFCou: FMM=F IPFlag=           0 FMFlag=      100000 FMFlg1=           0
         NFxFlg=           0 DoJE=T BraDBF=F KetDBF=T FulRan=T
         Omega=  0.000000  0.000000  1.000000  0.000000  0.000000 ICntrl=     500 IOpCl=  0
         NMat0=    1 NMatS0=    1 NMatT0=    0 NMatD0=    1 NMtDS0=    0 NMtDT0=    0
         I1Cent=           4 NGrid=           0.
 Petite list used in FoFCou.
 Initial guess orbital symmetries:
 Alpha Orbitals:
       Occupied  (A) (A) (A) (A) (A) (A) (A) (A) (A) (A) (A) (A)
                 (A) (A) (A) (A) (A) (A) (A) (A) (A) (A) (A) (A)
                 (A) (A) (A) (A) (A) (A) (A) (A) (A) (A) (A) (A)
                 (A) (A) (A) (A) (A) (A) (A) (A) (A) (A) (A)
       Virtual   (A) (A) (A) (A) (A) (A) (A) (A) (A) (A) (A) (A)
                 (A) (A) (A) (A) (A) (A) (A) (A) (A) (A) (A) (A)
                 (A) (A) (A) (A) (A) (A) (A) (A) (A) (A) (A) (A)
                 (A) (A) (A) (A) (A) (A) (A) (A) (A) (A) (A) (A)
                 (A) (A) (A) (A) (A) (A) (A) (A) (A) (A) (A) (A)
                 (A) (A) (A) (A) (A) (A) (A) (A) (A) (A) (A) (A)
                 (A) (A) (A) (A) (A) (A) (A) (A) (A) (A) (A) (A)
                 (A) (A) (A) (A) (A) (A) (A) (A) (A) (A) (A) (A)
                 (A) (A) (A) (A) (A) (A) (A) (A) (A) (A) (A) (A)
                 (A) (A) (A) (A) (A) (A) (A) (A) (A) (A) (A) (A)
                 (A) (A) (A) (A) (A) (A) (A) (A) (A) (A) (A) (A)
                 (A) (A) (A) (A) (A) (A) (A) (A) (A) (A) (A) (A)
                 (A) (A) (A) (A) (A) (A) (A) (A) (A) (A) (A) (A)
                 (A) (A) (A) (A) (A) (A) (A) (A) (A) (A) (A) (A)
                 (A) (A) (A) (A) (A) (A) (A) (A) (A) (A) (A) (A)
                 (A) (A) (A) (A) (A) (A) (A) (A) (A) (A) (A) (A)
                 (A) (A) (A) (A) (A) (A) (A) (A) (A) (A) (A) (A)
                 (A) (A) (A) (A) (A) (A) (A) (A) (A) (A) (A) (A)
                 (A) (A) (A) (A) (A) (A) (A) (A) (A) (A) (A) (A)
                 (A) (A) (A) (A) (A) (A) (A) (A) (A) (A) (A) (A)
                 (A) (A) (A) (A) (A) (A) (A) (A) (A) (A) (A) (A)
                 (A) (A) (A) (A) (A) (A) (A) (A) (A) (A) (A) (A)
                 (A) (A) (A) (A) (A) (A) (A) (A) (A) (A)
 Beta  Orbitals:
       Occupied  (A) (A) (A) (A) (A) (A) (A) (A) (A) (A) (A) (A)
                 (A) (A) (A) (A) (A) (A) (A) (A) (A) (A) (A) (A)
                 (A) (A) (A) (A) (A) (A) (A) (A) (A) (A) (A) (A)
                 (A) (A) (A) (A) (A) (A) (A) (A) (A) (A)
       Virtual   (A) (A) (A) (A) (A) (A) (A) (A) (A) (A) (A) (A)
                 (A) (A) (A) (A) (A) (A) (A) (A) (A) (A) (A) (A)
                 (A) (A) (A) (A) (A) (A) (A) (A) (A) (A) (A) (A)
                 (A) (A) (A) (A) (A) (A) (A) (A) (A) (A) (A) (A)
                 (A) (A) (A) (A) (A) (A) (A) (A) (A) (A) (A) (A)
                 (A) (A) (A) (A) (A) (A) (A) (A) (A) (A) (A) (A)
                 (A) (A) (A) (A) (A) (A) (A) (A) (A) (A) (A) (A)
                 (A) (A) (A) (A) (A) (A) (A) (A) (A) (A) (A) (A)
                 (A) (A) (A) (A) (A) (A) (A) (A) (A) (A) (A) (A)
                 (A) (A) (A) (A) (A) (A) (A) (A) (A) (A) (A) (A)
                 (A) (A) (A) (A) (A) (A) (A) (A) (A) (A) (A) (A)
                 (A) (A) (A) (A) (A) (A) (A) (A) (A) (A) (A) (A)
                 (A) (A) (A) (A) (A) (A) (A) (A) (A) (A) (A) (A)
                 (A) (A) (A) (A) (A) (A) (A) (A) (A) (A) (A) (A)
                 (A) (A) (A) (A) (A) (A) (A) (A) (A) (A) (A) (A)
                 (A) (A) (A) (A) (A) (A) (A) (A) (A) (A) (A) (A)
                 (A) (A) (A) (A) (A) (A) (A) (A) (A) (A) (A) (A)
                 (A) (A) (A) (A) (A) (A) (A) (A) (A) (A) (A) (A)
                 (A) (A) (A) (A) (A) (A) (A) (A) (A) (A) (A) (A)
                 (A) (A) (A) (A) (A) (A) (A) (A) (A) (A) (A) (A)
                 (A) (A) (A) (A) (A) (A) (A) (A) (A) (A) (A) (A)
                 (A) (A) (A) (A) (A) (A) (A) (A) (A) (A) (A) (A)
                 (A) (A) (A) (A) (A) (A) (A) (A) (A) (A) (A)
 The electronic state of the initial guess is 2-A.
 Initial guess <Sx>= 0.0000 <Sy>= 0.0000 <Sz>= 0.5000 <S**2>= 0.7500 S= 0.5000
 Requested convergence on RMS density matrix=1.00D-08 within 128 cycles.
 Requested convergence on MAX density matrix=1.00D-06.
 Requested convergence on             energy=1.00D-06.
 No special actions if energy rises.
 Restarting incremental Fock formation.
 SCF Done:  E(UM062X) =  -501.776756291     A.U. after   27 cycles
             Convg  =    0.4543D-08             -V/T =  2.0028
 <Sx>= 0.0000 <Sy>= 0.0000 <Sz>= 0.5000 <S**2>= 0.7560 S= 0.5030
 <L.S>= 0.000000000000E+00
 Annihilation of the first spin contaminant:
 S**2 before annihilation     0.7560,   after     0.7500

 **********************************************************************

            Population analysis using the SCF density.

 **********************************************************************

 Orbital symmetries:
 Alpha Orbitals:
       Occupied  (A) (A) (A) (A) (A) (A) (A) (A) (A) (A) (A) (A)
                 (A) (A) (A) (A) (A) (A) (A) (A) (A) (A) (A) (A)
                 (A) (A) (A) (A) (A) (A) (A) (A) (A) (A) (A) (A)
                 (A) (A) (A) (A) (A) (A) (A) (A) (A) (A) (A)
       Virtual   (A) (A) (A) (A) (A) (A) (A) (A) (A) (A) (A) (A)
                 (A) (A) (A) (A) (A) (A) (A) (A) (A) (A) (A) (A)
                 (A) (A) (A) (A) (A) (A) (A) (A) (A) (A) (A) (A)
                 (A) (A) (A) (A) (A) (A) (A) (A) (A) (A) (A) (A)
                 (A) (A) (A) (A) (A) (A) (A) (A) (A) (A) (A) (A)
                 (A) (A) (A) (A) (A) (A) (A) (A) (A) (A) (A) (A)
                 (A) (A) (A) (A) (A) (A) (A) (A) (A) (A) (A) (A)
                 (A) (A) (A) (A) (A) (A) (A) (A) (A) (A) (A) (A)
                 (A) (A) (A) (A) (A) (A) (A) (A) (A) (A) (A) (A)
                 (A) (A) (A) (A) (A) (A) (A) (A) (A) (A) (A) (A)
                 (A) (A) (A) (A) (A) (A) (A) (A) (A) (A) (A) (A)
                 (A) (A) (A) (A) (A) (A) (A) (A) (A) (A) (A) (A)
                 (A) (A) (A) (A) (A) (A) (A) (A) (A) (A) (A) (A)
                 (A) (A) (A) (A) (A) (A) (A) (A) (A) (A) (A) (A)
                 (A) (A) (A) (A) (A) (A) (A) (A) (A) (A) (A) (A)
                 (A) (A) (A) (A) (A) (A) (A) (A) (A) (A) (A) (A)
                 (A) (A) (A) (A) (A) (A) (A) (A) (A) (A) (A) (A)
                 (A) (A) (A) (A) (A) (A) (A) (A) (A) (A) (A) (A)
                 (A) (A) (A) (A) (A) (A) (A) (A) (A) (A) (A) (A)
                 (A) (A) (A) (A) (A) (A) (A) (A) (A) (A) (A) (A)
                 (A) (A) (A) (A) (A) (A) (A) (A) (A) (A) (A) (A)
                 (A) (A) (A) (A) (A) (A) (A) (A) (A) (A) (A) (A)
                 (A) (A) (A) (A) (A) (A) (A) (A) (A) (A)
 Beta  Orbitals:
       Occupied  (A) (A) (A) (A) (A) (A) (A) (A) (A) (A) (A) (A)
                 (A) (A) (A) (A) (A) (A) (A) (A) (A) (A) (A) (A)
                 (A) (A) (A) (A) (A) (A) (A) (A) (A) (A) (A) (A)
                 (A) (A) (A) (A) (A) (A) (A) (A) (A) (A)
       Virtual   (A) (A) (A) (A) (A) (A) (A) (A) (A) (A) (A) (A)
                 (A) (A) (A) (A) (A) (A) (A) (A) (A) (A) (A) (A)
                 (A) (A) (A) (A) (A) (A) (A) (A) (A) (A) (A) (A)
                 (A) (A) (A) (A) (A) (A) (A) (A) (A) (A) (A) (A)
                 (A) (A) (A) (A) (A) (A) (A) (A) (A) (A) (A) (A)
                 (A) (A) (A) (A) (A) (A) (A) (A) (A) (A) (A) (A)
                 (A) (A) (A) (A) (A) (A) (A) (A) (A) (A) (A) (A)
                 (A) (A) (A) (A) (A) (A) (A) (A) (A) (A) (A) (A)
                 (A) (A) (A) (A) (A) (A) (A) (A) (A) (A) (A) (A)
                 (A) (A) (A) (A) (A) (A) (A) (A) (A) (A) (A) (A)
                 (A) (A) (A) (A) (A) (A) (A) (A) (A) (A) (A) (A)
                 (A) (A) (A) (A) (A) (A) (A) (A) (A) (A) (A) (A)
                 (A) (A) (A) (A) (A) (A) (A) (A) (A) (A) (A) (A)
                 (A) (A) (A) (A) (A) (A) (A) (A) (A) (A) (A) (A)
                 (A) (A) (A) (A) (A) (A) (A) (A) (A) (A) (A) (A)
                 (A) (A) (A) (A) (A) (A) (A) (A) (A) (A) (A) (A)
                 (A) (A) (A) (A) (A) (A) (A) (A) (A) (A) (A) (A)
                 (A) (A) (A) (A) (A) (A) (A) (A) (A) (A) (A) (A)
                 (A) (A) (A) (A) (A) (A) (A) (A) (A) (A) (A) (A)
                 (A) (A) (A) (A) (A) (A) (A) (A) (A) (A) (A) (A)
                 (A) (A) (A) (A) (A) (A) (A) (A) (A) (A) (A) (A)
                 (A) (A) (A) (A) (A) (A) (A) (A) (A) (A) (A) (A)
                 (A) (A) (A) (A) (A) (A) (A) (A) (A) (A) (A)
 The electronic state is 2-A.
 Alpha  occ. eigenvalues --  -14.76765 -14.76637 -10.57592 -10.57136 -10.55867
 Alpha  occ. eigenvalues --  -10.55726 -10.54614 -10.53287 -10.53190 -10.52867
 Alpha  occ. eigenvalues --  -10.52830 -10.51936  -1.14799  -1.02484  -0.91546
 Alpha  occ. eigenvalues --   -0.88357  -0.85528  -0.82582  -0.79565  -0.74209
 Alpha  occ. eigenvalues --   -0.69275  -0.67850  -0.66710  -0.66178  -0.61402
 Alpha  occ. eigenvalues --   -0.56355  -0.55309  -0.53475  -0.52439  -0.51070
 Alpha  occ. eigenvalues --   -0.50942  -0.49701  -0.48824  -0.48428  -0.46870
 Alpha  occ. eigenvalues --   -0.46469  -0.45649  -0.44860  -0.42671  -0.41608
 Alpha  occ. eigenvalues --   -0.39807  -0.39156  -0.38696  -0.38098  -0.34108
 Alpha  occ. eigenvalues --   -0.29677  -0.07816
 Alpha virt. eigenvalues --    0.01775   0.02470   0.02793   0.03281   0.03729
 Alpha virt. eigenvalues --    0.04244   0.05142   0.05441   0.05842   0.06516
 Alpha virt. eigenvalues --    0.06811   0.06922   0.07296   0.07778   0.08335
 Alpha virt. eigenvalues --    0.09036   0.09310   0.09492   0.09974   0.11027
 Alpha virt. eigenvalues --    0.11612   0.12082   0.12427   0.12933   0.13345
 Alpha virt. eigenvalues --    0.14607   0.14781   0.15592   0.16087   0.16404
 Alpha virt. eigenvalues --    0.17131   0.17794   0.18756   0.19044   0.19224
 Alpha virt. eigenvalues --    0.19850   0.20049   0.20504   0.20726   0.21328
 Alpha virt. eigenvalues --    0.21943   0.22379   0.22674   0.23350   0.23751
 Alpha virt. eigenvalues --    0.23878   0.24215   0.24698   0.25107   0.25560
 Alpha virt. eigenvalues --    0.25740   0.26116   0.26504   0.26774   0.27103
 Alpha virt. eigenvalues --    0.27720   0.27860   0.28328   0.29077   0.30005
 Alpha virt. eigenvalues --    0.30220   0.30925   0.31700   0.31915   0.32295
 Alpha virt. eigenvalues --    0.32876   0.33360   0.33460   0.34748   0.35479
 Alpha virt. eigenvalues --    0.36218   0.36699   0.37859   0.38799   0.41080
 Alpha virt. eigenvalues --    0.42964   0.43804   0.43900   0.45010   0.45827
 Alpha virt. eigenvalues --    0.47796   0.48597   0.48771   0.49489   0.50941
 Alpha virt. eigenvalues --    0.52076   0.53851   0.54609   0.55970   0.56220
 Alpha virt. eigenvalues --    0.57418   0.59418   0.59984   0.62309   0.62811
 Alpha virt. eigenvalues --    0.63757   0.64023   0.65979   0.66589   0.67302
 Alpha virt. eigenvalues --    0.67947   0.68719   0.69762   0.70549   0.70989
 Alpha virt. eigenvalues --    0.71007   0.71846   0.72466   0.72552   0.73900
 Alpha virt. eigenvalues --    0.73926   0.74252   0.74627   0.75391   0.75800
 Alpha virt. eigenvalues --    0.76903   0.77264   0.79393   0.79624   0.80178
 Alpha virt. eigenvalues --    0.81193   0.82190   0.82678   0.83353   0.83935
 Alpha virt. eigenvalues --    0.85815   0.87121   0.88667   0.92726   0.93454
 Alpha virt. eigenvalues --    0.94035   0.96104   1.00020   1.01556   1.03976
 Alpha virt. eigenvalues --    1.04335   1.06791   1.07496   1.08455   1.10086
 Alpha virt. eigenvalues --    1.10710   1.12652   1.13785   1.16340   1.18703
 Alpha virt. eigenvalues --    1.22046   1.24613   1.26589   1.29353   1.34071
 Alpha virt. eigenvalues --    1.36102   1.36918   1.38196   1.38664   1.42578
 Alpha virt. eigenvalues --    1.44380   1.49395   1.51088   1.55145   1.56027
 Alpha virt. eigenvalues --    1.58430   1.59416   1.60701   1.61683   1.62291
 Alpha virt. eigenvalues --    1.63087   1.64429   1.64909   1.67855   1.69970
 Alpha virt. eigenvalues --    1.70334   1.72048   1.73647   1.75174   1.75574
 Alpha virt. eigenvalues --    1.76710   1.76929   1.81301   1.83337   1.84399
 Alpha virt. eigenvalues --    1.85053   1.88321   1.89384   1.90590   1.91436
 Alpha virt. eigenvalues --    1.92907   1.97241   1.99580   2.02270   2.02861
 Alpha virt. eigenvalues --    2.05307   2.10683   2.12742   2.17017   2.28938
 Alpha virt. eigenvalues --    2.29234   2.31860   2.34688   2.38078   2.45652
 Alpha virt. eigenvalues --    2.49073   2.52345   2.54057   2.55654   2.55748
 Alpha virt. eigenvalues --    2.56855   2.56985   2.58558   2.60276   2.61263
 Alpha virt. eigenvalues --    2.62483   2.63143   2.64557   2.65010   2.65275
 Alpha virt. eigenvalues --    2.67701   2.68864   2.69255   2.71709   2.74944
 Alpha virt. eigenvalues --    2.77180   2.78237   2.86402   2.90258   2.94993
 Alpha virt. eigenvalues --    3.00824   3.03800   3.05068   3.07094   3.08839
 Alpha virt. eigenvalues --    3.09316   3.18062   3.18282   3.20505   3.21755
 Alpha virt. eigenvalues --    3.24525   3.25941   3.26739   3.29608   3.31015
 Alpha virt. eigenvalues --    3.32373   3.35571   3.41104   3.47648   3.52434
 Alpha virt. eigenvalues --    3.55531   3.59806   3.63573   3.66212   3.67439
 Alpha virt. eigenvalues --    3.75865   3.81332   3.94897   3.99384   4.00308
 Alpha virt. eigenvalues --    4.02523   4.08456   4.20815   4.77381   4.92325
 Alpha virt. eigenvalues --    4.97481   5.28287  23.53534  23.60235  23.66327
 Alpha virt. eigenvalues --   23.71479  23.75552  23.78594  23.81096  23.85280
 Alpha virt. eigenvalues --   24.03198  24.26521  35.60940  35.76667
  Beta  occ. eigenvalues --  -14.76403 -14.76293 -10.57605 -10.57150 -10.55885
  Beta  occ. eigenvalues --  -10.55740 -10.54242 -10.53276 -10.53189 -10.52866
  Beta  occ. eigenvalues --  -10.52830 -10.51936  -1.13751  -1.01362  -0.91490
  Beta  occ. eigenvalues --   -0.88235  -0.85242  -0.82086  -0.79411  -0.74073
  Beta  occ. eigenvalues --   -0.68978  -0.67552  -0.66607  -0.65400  -0.61039
  Beta  occ. eigenvalues --   -0.56285  -0.53872  -0.53308  -0.52097  -0.50869
  Beta  occ. eigenvalues --   -0.50559  -0.49454  -0.48291  -0.47953  -0.46720
  Beta  occ. eigenvalues --   -0.46289  -0.45457  -0.44426  -0.42608  -0.41558
  Beta  occ. eigenvalues --   -0.39776  -0.39135  -0.38694  -0.37784  -0.31434
  Beta  occ. eigenvalues --   -0.27719
  Beta virt. eigenvalues --    0.00669   0.01833   0.02129   0.02401   0.02662
  Beta virt. eigenvalues --    0.03669   0.03971   0.04601   0.05024   0.05299
  Beta virt. eigenvalues --    0.05461   0.06242   0.06256   0.06821   0.07371
  Beta virt. eigenvalues --    0.07682   0.08201   0.08229   0.09057   0.09694
  Beta virt. eigenvalues --    0.10109   0.10704   0.11276   0.11612   0.11885
  Beta virt. eigenvalues --    0.12986   0.13813   0.13989   0.14436   0.14744
  Beta virt. eigenvalues --    0.15156   0.15823   0.16393   0.18034   0.18381
  Beta virt. eigenvalues --    0.18826   0.19321   0.19493   0.19850   0.20250
  Beta virt. eigenvalues --    0.20606   0.21495   0.22218   0.22490   0.23165
  Beta virt. eigenvalues --    0.23376   0.23563   0.23951   0.24223   0.24642
  Beta virt. eigenvalues --    0.25277   0.25499   0.25715   0.25992   0.26207
  Beta virt. eigenvalues --    0.26888   0.27005   0.27315   0.27725   0.28538
  Beta virt. eigenvalues --    0.29332   0.29680   0.30705   0.31199   0.31389
  Beta virt. eigenvalues --    0.31631   0.32188   0.32234   0.32853   0.33852
  Beta virt. eigenvalues --    0.34821   0.35751   0.36127   0.37070   0.37694
  Beta virt. eigenvalues --    0.39341   0.42288   0.43220   0.43838   0.44984
  Beta virt. eigenvalues --    0.45348   0.47667   0.47956   0.48322   0.48939
  Beta virt. eigenvalues --    0.50621   0.51604   0.53626   0.54044   0.55590
  Beta virt. eigenvalues --    0.55917   0.57181   0.59158   0.59718   0.61950
  Beta virt. eigenvalues --    0.62235   0.63165   0.63980   0.65583   0.66379
  Beta virt. eigenvalues --    0.66919   0.67904   0.68328   0.69499   0.70087
  Beta virt. eigenvalues --    0.70734   0.70860   0.71691   0.72425   0.72582
  Beta virt. eigenvalues --    0.73348   0.73806   0.73909   0.74304   0.75313
  Beta virt. eigenvalues --    0.75659   0.76868   0.77085   0.79193   0.79231
  Beta virt. eigenvalues --    0.79992   0.81037   0.82020   0.82610   0.83186
  Beta virt. eigenvalues --    0.83659   0.85556   0.86986   0.88572   0.92225
  Beta virt. eigenvalues --    0.93074   0.93900   0.96307   1.00333   1.01688
  Beta virt. eigenvalues --    1.03540   1.03971   1.06806   1.07458   1.08327
  Beta virt. eigenvalues --    1.09945   1.10610   1.12635   1.13390   1.16144
  Beta virt. eigenvalues --    1.19104   1.22419   1.24648   1.27009   1.29438
  Beta virt. eigenvalues --    1.34815   1.36503   1.36966   1.38328   1.39453
  Beta virt. eigenvalues --    1.42698   1.44322   1.49420   1.51350   1.55156
  Beta virt. eigenvalues --    1.55998   1.58374   1.59369   1.60676   1.61720
  Beta virt. eigenvalues --    1.62349   1.63100   1.64427   1.65034   1.67833
  Beta virt. eigenvalues --    1.69894   1.70336   1.72225   1.73610   1.75390
  Beta virt. eigenvalues --    1.75812   1.76664   1.76882   1.81330   1.83363
  Beta virt. eigenvalues --    1.84396   1.85195   1.88316   1.89379   1.90625
  Beta virt. eigenvalues --    1.91418   1.93033   1.97330   1.99629   2.02606
  Beta virt. eigenvalues --    2.03459   2.05436   2.10794   2.12871   2.17289
  Beta virt. eigenvalues --    2.29279   2.29704   2.31920   2.34757   2.38619
  Beta virt. eigenvalues --    2.45657   2.49099   2.52629   2.54043   2.55665
  Beta virt. eigenvalues --    2.55750   2.56880   2.57112   2.58854   2.60228
  Beta virt. eigenvalues --    2.61346   2.62441   2.63116   2.64620   2.64983
  Beta virt. eigenvalues --    2.65346   2.67829   2.68998   2.69508   2.71827
  Beta virt. eigenvalues --    2.75375   2.77662   2.78399   2.86327   2.90633
  Beta virt. eigenvalues --    2.95361   3.02959   3.03786   3.05219   3.07099
  Beta virt. eigenvalues --    3.08830   3.09508   3.18199   3.18354   3.20530
  Beta virt. eigenvalues --    3.21917   3.24627   3.25973   3.26727   3.29626
  Beta virt. eigenvalues --    3.31015   3.32382   3.35591   3.41141   3.47625
  Beta virt. eigenvalues --    3.52740   3.55469   3.59981   3.63684   3.66274
  Beta virt. eigenvalues --    3.67568   3.76475   3.81355   3.94997   3.99907
  Beta virt. eigenvalues --    4.01608   4.03726   4.08830   4.20888   4.77407
  Beta virt. eigenvalues --    4.92457   4.97660   5.28556  23.53533  23.60226
  Beta virt. eigenvalues --   23.66321  23.71459  23.75542  23.78592  23.81096
  Beta virt. eigenvalues --   23.85282  24.03241  24.26506  35.60474  35.76200
          Condensed to atoms (all electrons):
              1          2          3          4          5          6
     1  C    8.275506  -2.342127   0.513669  -0.409182   0.387783   0.014440
     2  C   -2.342127   8.505118  -0.553970   0.386588  -0.003009   0.376846
     3  C    0.513669  -0.553970   7.298520  -0.276300  -0.004001   0.019653
     4  N   -0.409182   0.386588  -0.276300   7.311482  -0.072264   0.016251
     5  H    0.387783  -0.003009  -0.004001  -0.072264   0.418680  -0.001382
     6  H    0.014440   0.376846   0.019653   0.016251  -0.001382   0.416172
     7  H    0.000039   0.001865   0.438195  -0.050427  -0.000175  -0.000116
     8  N   -0.232548   0.280205  -0.397729   0.090378   0.025965  -0.079811
     9  C    0.893749  -1.198836  -0.079154  -0.603706  -0.037377  -0.000906
    10  H   -0.074351   0.048529   0.102441  -0.062780  -0.000018   0.000021
    11  H   -0.007445   0.045469   0.008554  -0.059399   0.000711  -0.000037
    12  C    0.074351   0.055330  -0.143302  -0.103219   0.025093  -0.001216
    13  H    0.015866  -0.018589   0.006706  -0.017075  -0.001577   0.000021
    14  H    0.031833  -0.013772   0.014648   0.002101   0.000085  -0.000007
    15  C   -0.596478   0.577819  -0.009208   0.502925   0.011495  -0.000684
    16  H    0.008109  -0.001705   0.000327   0.000109   0.000038   0.000000
    17  H   -0.001428  -0.002380  -0.001242  -0.003714  -0.000024   0.000000
    18  C    0.056133  -0.086417  -0.039909  -0.175719   0.001502  -0.000039
    19  H    0.000363   0.000563  -0.000395   0.001434   0.000003   0.000000
    20  H   -0.000822   0.000227   0.000548   0.000908  -0.000004   0.000000
    21  C   -0.008793   0.010737   0.004130   0.016773   0.000163  -0.000002
    22  H   -0.000005   0.000007  -0.000081  -0.000039   0.000000   0.000000
    23  H   -0.000002   0.000004   0.000116   0.000024   0.000000   0.000000
    24  C   -0.001183   0.000567  -0.000249   0.000217   0.000015   0.000000
    25  H    0.000002   0.000000   0.000002   0.000002   0.000000   0.000000
    26  H   -0.000011   0.000000  -0.000011  -0.000006   0.000000   0.000000
    27  H    0.000009   0.000001   0.000003  -0.000002   0.000000   0.000000
    28  C   -0.344782   0.304001  -0.173003   0.017955   0.001553  -0.007680
    29  H   -0.019838   0.032785  -0.031916  -0.004787   0.000011  -0.000073
    30  H    0.048146  -0.035772   0.022224  -0.011114  -0.000014   0.000171
    31  H    0.004699  -0.020979   0.071234   0.009397   0.000024  -0.000218
              7          8          9         10         11         12
     1  C    0.000039  -0.232548   0.893749  -0.074351  -0.007445   0.074351
     2  C    0.001865   0.280205  -1.198836   0.048529   0.045469   0.055330
     3  C    0.438195  -0.397729  -0.079154   0.102441   0.008554  -0.143302
     4  N   -0.050427   0.090378  -0.603706  -0.062780  -0.059399  -0.103219
     5  H   -0.000175   0.025965  -0.037377  -0.000018   0.000711   0.025093
     6  H   -0.000116  -0.079811  -0.000906   0.000021  -0.000037  -0.001216
     7  H    0.404449  -0.051209  -0.005392   0.003278  -0.000170   0.017714
     8  N   -0.051209   7.305901  -0.344853   0.013518  -0.005417   0.088282
     9  C   -0.005392  -0.344853  10.518698   0.175498   0.321085  -0.239067
    10  H    0.003278   0.013518   0.175498   0.468693  -0.017733  -0.081225
    11  H   -0.000170  -0.005417   0.321085  -0.017733   0.454602  -0.025898
    12  C    0.017714   0.088282  -0.239067  -0.081225  -0.025898   8.289973
    13  H    0.000038   0.000579  -0.029854   0.003241  -0.006857   0.441899
    14  H   -0.000368   0.001489  -0.088265  -0.004935   0.003601   0.495344
    15  C   -0.006441   0.115618  -2.425132   0.193858   0.047266  -2.570877
    16  H   -0.000006   0.000130  -0.012590  -0.000080   0.001528  -0.004425
    17  H    0.000023  -0.000212   0.051612  -0.002421  -0.000854  -0.061897
    18  C    0.000884  -0.011253   0.404930  -0.031793  -0.020604   0.672740
    19  H    0.000000   0.000136  -0.010057   0.000369   0.000014  -0.010780
    20  H   -0.000001  -0.000011   0.008825  -0.000014   0.000172   0.013529
    21  C   -0.000063   0.002065  -0.277664   0.008156   0.003841  -0.412174
    22  H    0.000000   0.000001   0.000269   0.000014  -0.000032  -0.001243
    23  H    0.000000  -0.000001   0.001723  -0.000022   0.000016   0.010897
    24  C   -0.000003   0.000138  -0.033246   0.000337   0.000008  -0.212767
    25  H    0.000000   0.000000   0.000502   0.000000   0.000000   0.005834
    26  H    0.000000   0.000000  -0.000303   0.000000   0.000000  -0.002563
    27  H    0.000000   0.000000  -0.000326   0.000000   0.000000  -0.000017
    28  C   -0.001773   0.007527  -0.170556   0.007451   0.002308   0.030248
    29  H    0.000013  -0.067985  -0.004506   0.000025   0.000001   0.000711
    30  H    0.000003  -0.086592   0.007735  -0.000035  -0.000010  -0.001491
    31  H    0.002820  -0.083141   0.004963  -0.000007  -0.000002  -0.001181
             13         14         15         16         17         18
     1  C    0.015866   0.031833  -0.596478   0.008109  -0.001428   0.056133
     2  C   -0.018589  -0.013772   0.577819  -0.001705  -0.002380  -0.086417
     3  C    0.006706   0.014648  -0.009208   0.000327  -0.001242  -0.039909
     4  N   -0.017075   0.002101   0.502925   0.000109  -0.003714  -0.175719
     5  H   -0.001577   0.000085   0.011495   0.000038  -0.000024   0.001502
     6  H    0.000021  -0.000007  -0.000684   0.000000   0.000000  -0.000039
     7  H    0.000038  -0.000368  -0.006441  -0.000006   0.000023   0.000884
     8  N    0.000579   0.001489   0.115618   0.000130  -0.000212  -0.011253
     9  C   -0.029854  -0.088265  -2.425132  -0.012590   0.051612   0.404930
    10  H    0.003241  -0.004935   0.193858  -0.000080  -0.002421  -0.031793
    11  H   -0.006857   0.003601   0.047266   0.001528  -0.000854  -0.020604
    12  C    0.441899   0.495344  -2.570877  -0.004425  -0.061897   0.672740
    13  H    0.445894  -0.032145  -0.085444  -0.005564   0.005671   0.023302
    14  H   -0.032145   0.418067  -0.098640   0.005484  -0.004932  -0.006281
    15  C   -0.085444  -0.098640  11.962214   0.396715   0.363358  -2.634818
    16  H   -0.005564   0.005484   0.396715   0.464563  -0.040194  -0.070683
    17  H    0.005671  -0.004932   0.363358  -0.040194   0.459903  -0.004845
    18  C    0.023302  -0.006281  -2.634818  -0.070683  -0.004845   8.660136
    19  H    0.000403   0.000964   0.001702   0.006080  -0.007169   0.391865
    20  H    0.000461   0.000386  -0.035702  -0.006724   0.005795   0.414335
    21  C    0.002080   0.003156   0.807670  -0.003827  -0.023139  -0.900284
    22  H    0.000162  -0.000087  -0.005768   0.001158   0.000319  -0.039408
    23  H   -0.000097   0.000124   0.004938   0.000265   0.001484  -0.056862
    24  C    0.000907   0.000387  -0.150472   0.001703   0.004067   0.193555
    25  H    0.000000   0.000000   0.015361  -0.000015  -0.000016   0.080777
    26  H    0.000011  -0.000024  -0.003288  -0.000052   0.000074  -0.037394
    27  H   -0.000026   0.000010   0.000678   0.000097  -0.000045  -0.045672
    28  C   -0.000633   0.000815   0.039397   0.000031  -0.000164  -0.004222
    29  H    0.000000   0.000000   0.000192   0.000000   0.000000  -0.000012
    30  H    0.000002   0.000004  -0.000479   0.000000   0.000000   0.000080
    31  H    0.000000  -0.000001  -0.000326   0.000000   0.000000  -0.000027
             19         20         21         22         23         24
     1  C    0.000363  -0.000822  -0.008793  -0.000005  -0.000002  -0.001183
     2  C    0.000563   0.000227   0.010737   0.000007   0.000004   0.000567
     3  C   -0.000395   0.000548   0.004130  -0.000081   0.000116  -0.000249
     4  N    0.001434   0.000908   0.016773  -0.000039   0.000024   0.000217
     5  H    0.000003  -0.000004   0.000163   0.000000   0.000000   0.000015
     6  H    0.000000   0.000000  -0.000002   0.000000   0.000000   0.000000
     7  H    0.000000  -0.000001  -0.000063   0.000000   0.000000  -0.000003
     8  N    0.000136  -0.000011   0.002065   0.000001  -0.000001   0.000138
     9  C   -0.010057   0.008825  -0.277664   0.000269   0.001723  -0.033246
    10  H    0.000369  -0.000014   0.008156   0.000014  -0.000022   0.000337
    11  H    0.000014   0.000172   0.003841  -0.000032   0.000016   0.000008
    12  C   -0.010780   0.013529  -0.412174  -0.001243   0.010897  -0.212767
    13  H    0.000403   0.000461   0.002080   0.000162  -0.000097   0.000907
    14  H    0.000964   0.000386   0.003156  -0.000087   0.000124   0.000387
    15  C    0.001702  -0.035702   0.807670  -0.005768   0.004938  -0.150472
    16  H    0.006080  -0.006724  -0.003827   0.001158   0.000265   0.001703
    17  H   -0.007169   0.005795  -0.023139   0.000319   0.001484   0.004067
    18  C    0.391865   0.414335  -0.900284  -0.039408  -0.056862   0.193555
    19  H    0.464517  -0.040601  -0.058194   0.006558  -0.007613  -0.003835
    20  H   -0.040601   0.466168  -0.082638  -0.007745   0.006679  -0.004578
    21  C   -0.058194  -0.082638   6.553018   0.418468   0.419140  -0.108587
    22  H    0.006558  -0.007745   0.418468   0.475339  -0.043358  -0.050635
    23  H   -0.007613   0.006679   0.419140  -0.043358   0.473419  -0.057660
    24  C   -0.003835  -0.004578  -0.108587  -0.050635  -0.057660   6.333765
    25  H   -0.000006  -0.000018  -0.106504  -0.003812  -0.003825   0.356707
    26  H    0.002862  -0.000531   0.011449   0.006874  -0.008729   0.377529
    27  H   -0.000463   0.002876   0.021739  -0.008894   0.006777   0.368846
    28  C    0.000029   0.000000   0.000549   0.000000   0.000000   0.000026
    29  H    0.000000   0.000000   0.000000   0.000000   0.000000   0.000000
    30  H    0.000000   0.000000  -0.000002   0.000000   0.000000   0.000000
    31  H    0.000000   0.000000  -0.000001   0.000000   0.000000   0.000000
             25         26         27         28         29         30
     1  C    0.000002  -0.000011   0.000009  -0.344782  -0.019838   0.048146
     2  C    0.000000   0.000000   0.000001   0.304001   0.032785  -0.035772
     3  C    0.000002  -0.000011   0.000003  -0.173003  -0.031916   0.022224
     4  N    0.000002  -0.000006  -0.000002   0.017955  -0.004787  -0.011114
     5  H    0.000000   0.000000   0.000000   0.001553   0.000011  -0.000014
     6  H    0.000000   0.000000   0.000000  -0.007680  -0.000073   0.000171
     7  H    0.000000   0.000000   0.000000  -0.001773   0.000013   0.000003
     8  N    0.000000   0.000000   0.000000   0.007527  -0.067985  -0.086592
     9  C    0.000502  -0.000303  -0.000326  -0.170556  -0.004506   0.007735
    10  H    0.000000   0.000000   0.000000   0.007451   0.000025  -0.000035
    11  H    0.000000   0.000000   0.000000   0.002308   0.000001  -0.000010
    12  C    0.005834  -0.002563  -0.000017   0.030248   0.000711  -0.001491
    13  H    0.000000   0.000011  -0.000026  -0.000633   0.000000   0.000002
    14  H    0.000000  -0.000024   0.000010   0.000815   0.000000   0.000004
    15  C    0.015361  -0.003288   0.000678   0.039397   0.000192  -0.000479
    16  H   -0.000015  -0.000052   0.000097   0.000031   0.000000   0.000000
    17  H   -0.000016   0.000074  -0.000045  -0.000164   0.000000   0.000000
    18  C    0.080777  -0.037394  -0.045672  -0.004222  -0.000012   0.000080
    19  H   -0.000006   0.002862  -0.000463   0.000029   0.000000   0.000000
    20  H   -0.000018  -0.000531   0.002876   0.000000   0.000000   0.000000
    21  C   -0.106504   0.011449   0.021739   0.000549   0.000000  -0.000002
    22  H   -0.003812   0.006874  -0.008894   0.000000   0.000000   0.000000
    23  H   -0.003825  -0.008729   0.006777   0.000000   0.000000   0.000000
    24  C    0.356707   0.377529   0.368846   0.000026   0.000000   0.000000
    25  H    0.445391  -0.026888  -0.026900   0.000000   0.000000   0.000000
    26  H   -0.026888   0.463096  -0.037775   0.000000   0.000000   0.000000
    27  H   -0.026900  -0.037775   0.464152   0.000000   0.000000   0.000000
    28  C    0.000000   0.000000   0.000000   5.752628   0.449761   0.403179
    29  H    0.000000   0.000000   0.000000   0.449761   0.465484  -0.045154
    30  H    0.000000   0.000000   0.000000   0.403179  -0.045154   0.476691
    31  H    0.000000   0.000000   0.000000   0.373550  -0.022874  -0.022274
             31
     1  C    0.004699
     2  C   -0.020979
     3  C    0.071234
     4  N    0.009397
     5  H    0.000024
     6  H   -0.000218
     7  H    0.002820
     8  N   -0.083141
     9  C    0.004963
    10  H   -0.000007
    11  H   -0.000002
    12  C   -0.001181
    13  H    0.000000
    14  H   -0.000001
    15  C   -0.000326
    16  H    0.000000
    17  H    0.000000
    18  C   -0.000027
    19  H    0.000000
    20  H    0.000000
    21  C   -0.000001
    22  H    0.000000
    23  H    0.000000
    24  C    0.000000
    25  H    0.000000
    26  H    0.000000
    27  H    0.000000
    28  C    0.373550
    29  H   -0.022874
    30  H   -0.022274
    31  H    0.430192
 Mulliken atomic charges:
              1
     1  C   -0.285701
     2  C   -0.349104
     3  C   -0.790502
     4  N    0.493186
     5  H    0.246722
     6  H    0.248596
     7  H    0.246824
     8  N    0.428831
     9  C   -0.827799
    10  H    0.249986
    11  H    0.255281
    12  C   -0.348602
    13  H    0.250618
    14  H    0.270961
    15  C   -0.417448
    16  H    0.259529
    17  H    0.262369
    18  C   -0.733993
    19  H    0.261251
    20  H    0.258478
    21  C   -0.301260
    22  H    0.251938
    23  H    0.252563
    24  C   -1.015559
    25  H    0.263407
    26  H    0.255678
    27  H    0.254933
    28  C   -0.688198
    29  H    0.248163
    30  H    0.244701
    31  H    0.254151
 Sum of Mulliken atomic charges =   0.00000
 Mulliken charges with hydrogens summed into heavy atoms:
              1
     1  C   -0.038979
     2  C   -0.100508
     3  C   -0.543678
     4  N    0.493186
     8  N    0.428831
     9  C   -0.322531
    12  C    0.172977
    15  C    0.104450
    18  C   -0.214264
    21  C    0.203240
    24  C   -0.241540
    28  C    0.058817
 Sum of Mulliken charges with hydrogens summed into heavy atoms =   0.00000
          Atomic-Atomic Spin Densities.
              1          2          3          4          5          6
     1  C    2.402656  -2.401957   0.552333  -0.561060  -0.026867   0.018372
     2  C   -2.401957   2.625491  -0.281663   0.359361   0.024816  -0.021321
     3  C    0.552333  -0.281663   2.347593  -0.768666  -0.000435   0.004241
     4  N   -0.561060   0.359361  -0.768666   0.912346   0.005512  -0.001865
     5  H   -0.026867   0.024816  -0.000435   0.005512  -0.000589  -0.000036
     6  H    0.018372  -0.021321   0.004241  -0.001865  -0.000036  -0.001457
     7  H    0.002958  -0.001894  -0.006586   0.005044   0.000043   0.000040
     8  N   -0.272434   0.043471  -0.891517   0.318217  -0.000065   0.001231
     9  C    1.271854  -1.286292   0.006423  -0.648579  -0.009731   0.001178
    10  H   -0.050217   0.055418   0.059211   0.019797   0.000250  -0.000009
    11  H   -0.034468   0.047479   0.031849   0.008752   0.000629  -0.000010
    12  C   -0.085655   0.060677  -0.096556  -0.062576   0.001045  -0.000507
    13  H    0.006547  -0.006568   0.001938  -0.012067  -0.000082   0.000000
    14  H    0.007309  -0.003198   0.003577   0.000531  -0.000033   0.000001
    15  C   -0.545253   0.531425   0.019699   0.533083   0.005507  -0.000241
    16  H    0.001538  -0.000961  -0.000725   0.000032  -0.000015   0.000000
    17  H    0.000988  -0.001398  -0.001599  -0.003215  -0.000005   0.000000
    18  C    0.094344  -0.098348   0.000381  -0.137854  -0.000842   0.000014
    19  H   -0.000588   0.000573  -0.000241   0.001400   0.000001   0.000000
    20  H   -0.000393   0.000413  -0.000016   0.000657   0.000003   0.000000
    21  C   -0.009421   0.010472   0.004225   0.015633   0.000086  -0.000001
    22  H   -0.000004   0.000003   0.000001   0.000001   0.000000   0.000000
    23  H    0.000001   0.000003   0.000005   0.000012   0.000000   0.000000
    24  C   -0.000505   0.000532   0.000123   0.000913   0.000003   0.000000
    25  H    0.000000   0.000000   0.000000   0.000000   0.000000   0.000000
    26  H    0.000000   0.000000   0.000000   0.000000   0.000000   0.000000
    27  H    0.000001  -0.000001   0.000000  -0.000002   0.000000   0.000000
    28  C   -0.347524   0.400771  -0.070066   0.032146   0.000707  -0.000619
    29  H   -0.020581   0.027015  -0.009378   0.001361   0.000011  -0.000027
    30  H    0.038768  -0.037641   0.049965  -0.004516  -0.000018   0.000243
    31  H    0.002412  -0.004349   0.005422  -0.001972   0.000000  -0.000009
              7          8          9         10         11         12
     1  C    0.002958  -0.272434   1.271854  -0.050217  -0.034468  -0.085655
     2  C   -0.001894   0.043471  -1.286292   0.055418   0.047479   0.060677
     3  C   -0.006586  -0.891517   0.006423   0.059211   0.031849  -0.096556
     4  N    0.005044   0.318217  -0.648579   0.019797   0.008752  -0.062576
     5  H    0.000043  -0.000065  -0.009731   0.000250   0.000629   0.001045
     6  H    0.000040   0.001231   0.001178  -0.000009  -0.000010  -0.000507
     7  H   -0.045949   0.003238  -0.007130  -0.000477   0.000006   0.000938
     8  N    0.003238   0.928843  -0.194813   0.005457   0.000868   0.038143
     9  C   -0.007130  -0.194813   2.413543  -0.250434  -0.135578   0.645224
    10  H   -0.000477   0.005457  -0.250434   0.042549   0.016591  -0.036912
    11  H    0.000006   0.000868  -0.135578   0.016591   0.020750  -0.030968
    12  C    0.000938   0.038143   0.645224  -0.036912  -0.030968   0.904734
    13  H    0.000021  -0.001281   0.017605  -0.000802  -0.000574   0.035093
    14  H    0.000059  -0.000250   0.016526  -0.000476  -0.000268   0.000257
    15  C    0.000169   0.081265  -2.341109   0.181836   0.110735  -2.045883
    16  H    0.000001  -0.000021   0.008851  -0.000591  -0.000445   0.021389
    17  H    0.000005  -0.000190   0.020416  -0.002256  -0.000787   0.037437
    18  C    0.000080  -0.016140   0.713234  -0.038181  -0.026968   0.912664
    19  H    0.000000   0.000087  -0.009987   0.000229   0.000084  -0.017529
    20  H    0.000000   0.000027  -0.004469   0.000068   0.000076  -0.008879
    21  C    0.000016   0.001210  -0.117877   0.006939   0.004170  -0.219230
    22  H    0.000000   0.000000  -0.000218   0.000002   0.000001  -0.000815
    23  H    0.000000   0.000000  -0.000092   0.000004   0.000001  -0.000472
    24  C    0.000001   0.000042  -0.009537   0.000288   0.000125  -0.036367
    25  H    0.000000   0.000000  -0.000010   0.000000   0.000000  -0.000088
    26  H    0.000000   0.000000  -0.000004   0.000000   0.000000  -0.000098
    27  H    0.000000   0.000000   0.000071   0.000000   0.000000   0.000552
    28  C    0.000678  -0.031504  -0.157353   0.006631   0.002686   0.016912
    29  H    0.000025  -0.010437  -0.003711   0.000023   0.000007   0.000950
    30  H    0.000007  -0.028816   0.008327  -0.000039  -0.000008  -0.002461
    31  H   -0.000297  -0.007709  -0.000231  -0.000014  -0.000002  -0.000138
             13         14         15         16         17         18
     1  C    0.006547   0.007309  -0.545253   0.001538   0.000988   0.094344
     2  C   -0.006568  -0.003198   0.531425  -0.000961  -0.001398  -0.098348
     3  C    0.001938   0.003577   0.019699  -0.000725  -0.001599   0.000381
     4  N   -0.012067   0.000531   0.533083   0.000032  -0.003215  -0.137854
     5  H   -0.000082  -0.000033   0.005507  -0.000015  -0.000005  -0.000842
     6  H    0.000000   0.000001  -0.000241   0.000000   0.000000   0.000014
     7  H    0.000021   0.000059   0.000169   0.000001   0.000005   0.000080
     8  N   -0.001281  -0.000250   0.081265  -0.000021  -0.000190  -0.016140
     9  C    0.017605   0.016526  -2.341109   0.008851   0.020416   0.713234
    10  H   -0.000802  -0.000476   0.181836  -0.000591  -0.002256  -0.038181
    11  H   -0.000574  -0.000268   0.110735  -0.000445  -0.000787  -0.026968
    12  C    0.035093   0.000257  -2.045883   0.021389   0.037437   0.912664
    13  H    0.001910   0.000309  -0.061057   0.000129   0.000283   0.023128
    14  H    0.000309  -0.000719  -0.014268   0.000062   0.000225  -0.008889
    15  C   -0.061057  -0.014268   5.247738  -0.024245  -0.076435  -2.348129
    16  H    0.000129   0.000062  -0.024245   0.000438   0.000684  -0.002577
    17  H    0.000283   0.000225  -0.076435   0.000684   0.002423   0.034729
    18  C    0.023128  -0.008889  -2.348129  -0.002577   0.034729   1.371219
    19  H   -0.000244  -0.000101   0.052340  -0.000122  -0.000575  -0.038030
    20  H   -0.000282  -0.000013   0.025922  -0.000045  -0.000192  -0.018484
    21  C   -0.002345  -0.000207   0.520753  -0.002215  -0.008759  -0.341538
    22  H    0.000002  -0.000005   0.000884  -0.000118  -0.000008  -0.000631
    23  H   -0.000003  -0.000002   0.002870  -0.000013  -0.000088  -0.002884
    24  C   -0.000242  -0.000334   0.086289  -0.001249  -0.001487  -0.077070
    25  H    0.000000   0.000000   0.000180   0.000000   0.000000  -0.000488
    26  H    0.000001  -0.000001  -0.000191  -0.000002   0.000002   0.000184
    27  H    0.000000   0.000001  -0.001003   0.000006   0.000004   0.001089
    28  C   -0.000272  -0.000071   0.034802  -0.000023  -0.000078  -0.005493
    29  H    0.000000   0.000000   0.000158   0.000000   0.000000  -0.000009
    30  H    0.000002   0.000003  -0.000620   0.000000   0.000000   0.000055
    31  H    0.000000  -0.000001  -0.000051   0.000000   0.000000   0.000004
             19         20         21         22         23         24
     1  C   -0.000588  -0.000393  -0.009421  -0.000004   0.000001  -0.000505
     2  C    0.000573   0.000413   0.010472   0.000003   0.000003   0.000532
     3  C   -0.000241  -0.000016   0.004225   0.000001   0.000005   0.000123
     4  N    0.001400   0.000657   0.015633   0.000001   0.000012   0.000913
     5  H    0.000001   0.000003   0.000086   0.000000   0.000000   0.000003
     6  H    0.000000   0.000000  -0.000001   0.000000   0.000000   0.000000
     7  H    0.000000   0.000000   0.000016   0.000000   0.000000   0.000001
     8  N    0.000087   0.000027   0.001210   0.000000   0.000000   0.000042
     9  C   -0.009987  -0.004469  -0.117877  -0.000218  -0.000092  -0.009537
    10  H    0.000229   0.000068   0.006939   0.000002   0.000004   0.000288
    11  H    0.000084   0.000076   0.004170   0.000001   0.000001   0.000125
    12  C   -0.017529  -0.008879  -0.219230  -0.000815  -0.000472  -0.036367
    13  H   -0.000244  -0.000282  -0.002345   0.000002  -0.000003  -0.000242
    14  H   -0.000101  -0.000013  -0.000207  -0.000005  -0.000002  -0.000334
    15  C    0.052340   0.025922   0.520753   0.000884   0.002870   0.086289
    16  H   -0.000122  -0.000045  -0.002215  -0.000118  -0.000013  -0.001249
    17  H   -0.000575  -0.000192  -0.008759  -0.000008  -0.000088  -0.001487
    18  C   -0.038030  -0.018484  -0.341538  -0.000631  -0.002884  -0.077070
    19  H    0.001692   0.000509   0.008866  -0.000002   0.000045   0.001474
    20  H    0.000509   0.000408   0.004191  -0.000007   0.000011   0.000367
    21  C    0.008866   0.004191   0.112133   0.000535   0.000692   0.014142
    22  H   -0.000002  -0.000007   0.000535   0.000006  -0.000026   0.000288
    23  H    0.000045   0.000011   0.000692  -0.000026   0.000000  -0.000107
    24  C    0.001474   0.000367   0.014142   0.000288  -0.000107   0.020431
    25  H    0.000007   0.000003   0.000148   0.000004  -0.000001   0.000242
    26  H   -0.000023  -0.000002  -0.000001   0.000004  -0.000006   0.000120
    27  H   -0.000033  -0.000030   0.000125  -0.000013  -0.000002  -0.000798
    28  C    0.000021   0.000007   0.000431   0.000000   0.000000   0.000012
    29  H    0.000000   0.000000   0.000000   0.000000   0.000000   0.000000
    30  H    0.000000   0.000000  -0.000002   0.000000   0.000000   0.000000
    31  H    0.000000   0.000000   0.000000   0.000000   0.000000   0.000000
             25         26         27         28         29         30
     1  C    0.000000   0.000000   0.000001  -0.347524  -0.020581   0.038768
     2  C    0.000000   0.000000  -0.000001   0.400771   0.027015  -0.037641
     3  C    0.000000   0.000000   0.000000  -0.070066  -0.009378   0.049965
     4  N    0.000000   0.000000  -0.000002   0.032146   0.001361  -0.004516
     5  H    0.000000   0.000000   0.000000   0.000707   0.000011  -0.000018
     6  H    0.000000   0.000000   0.000000  -0.000619  -0.000027   0.000243
     7  H    0.000000   0.000000   0.000000   0.000678   0.000025   0.000007
     8  N    0.000000   0.000000   0.000000  -0.031504  -0.010437  -0.028816
     9  C   -0.000010  -0.000004   0.000071  -0.157353  -0.003711   0.008327
    10  H    0.000000   0.000000   0.000000   0.006631   0.000023  -0.000039
    11  H    0.000000   0.000000   0.000000   0.002686   0.000007  -0.000008
    12  C   -0.000088  -0.000098   0.000552   0.016912   0.000950  -0.002461
    13  H    0.000000   0.000001   0.000000  -0.000272   0.000000   0.000002
    14  H    0.000000  -0.000001   0.000001  -0.000071   0.000000   0.000003
    15  C    0.000180  -0.000191  -0.001003   0.034802   0.000158  -0.000620
    16  H    0.000000  -0.000002   0.000006  -0.000023   0.000000   0.000000
    17  H    0.000000   0.000002   0.000004  -0.000078   0.000000   0.000000
    18  C   -0.000488   0.000184   0.001089  -0.005493  -0.000009   0.000055
    19  H    0.000007  -0.000023  -0.000033   0.000021   0.000000   0.000000
    20  H    0.000003  -0.000002  -0.000030   0.000007   0.000000   0.000000
    21  C    0.000148  -0.000001   0.000125   0.000431   0.000000  -0.000002
    22  H    0.000004   0.000004  -0.000013   0.000000   0.000000   0.000000
    23  H   -0.000001  -0.000006  -0.000002   0.000000   0.000000   0.000000
    24  C    0.000242   0.000120  -0.000798   0.000012   0.000000   0.000000
    25  H    0.000001   0.000009  -0.000006   0.000000   0.000000   0.000000
    26  H    0.000009  -0.000001  -0.000009   0.000000   0.000000   0.000000
    27  H   -0.000006  -0.000009   0.000058   0.000000   0.000000   0.000000
    28  C    0.000000   0.000000   0.000000   0.142222   0.021145  -0.024267
    29  H    0.000000   0.000000   0.000000   0.021145   0.007511  -0.004782
    30  H    0.000000   0.000000   0.000000  -0.024267  -0.004782   0.016741
    31  H    0.000000   0.000000   0.000000   0.004532   0.000816   0.001927
             31
     1  C    0.002412
     2  C   -0.004349
     3  C    0.005422
     4  N   -0.001972
     5  H    0.000000
     6  H   -0.000009
     7  H   -0.000297
     8  N   -0.007709
     9  C   -0.000231
    10  H   -0.000014
    11  H   -0.000002
    12  C   -0.000138
    13  H    0.000000
[...]
    16  H    0.000000
    17  H    0.000000
    18  C   -0.000001
    19  H    0.000000
    20  H    0.000000
    21  C    0.000001
    22  H    0.000000
    23  H    0.000000
    24  C    0.000000
    25  H    0.000000
    26  H    0.000000
    27  H    0.000000
    28  C    0.018896
    29  H   -0.000900
    30  H   -0.005537
    31  H    0.010447
 Mulliken atomic spin densities:
              1
     1  C    0.074799
     2  C   -0.024992
     3  C    0.730074
     4  N    0.154854
     5  H   -0.000405
     6  H    0.000391
     7  H    0.011546
     8  N    0.064698
     9  C    0.084862
    10  H    0.000361
    11  H   -0.000355
    12  C   -0.020319
    13  H   -0.000383
    14  H    0.000684
    15  C   -0.067915
    16  H    0.000861
    17  H    0.000221
    18  C   -0.004902
    19  H   -0.000005
    20  H   -0.000195
    21  C   -0.003092
    22  H   -0.000042
    23  H   -0.000012
    24  C   -0.000703
    25  H    0.000029
    26  H   -0.000007
    27  H   -0.000003
    28  C   -0.026550
    29  H   -0.000011
    30  H    0.026198
    31  H    0.000312
 Sum of Mulliken atomic spin densities =   1.00000
 Electronic spatial extent (au):  <R**2>=           4191.4889
 Charge=              0.0000 electrons
 Dipole moment (field-independent basis, Debye):
    X=              0.0981    Y=             -0.1265    Z=              0.5410  Tot=              0.5642
 Quadrupole moment (field-independent basis, Debye-Ang):
   XX=            -74.5518   YY=            -77.4238   ZZ=            -74.9379
   XY=             -5.5576   XZ=             -2.8206   YZ=             -1.7158
 Traceless Quadrupole moment (field-independent basis, Debye-Ang):
   XX=              1.0860   YY=             -1.7860   ZZ=              0.6999
   XY=             -5.5576   XZ=             -2.8206   YZ=             -1.7158
 Octapole moment (field-independent basis, Debye-Ang**2):
  XXX=            -34.9541  YYY=             -0.6379  ZZZ=             -1.1113  XYY=             -3.5525
  XXY=             25.5477  XXZ=              9.4722  XZZ=            -10.8734  YZZ=             -3.8468
  YYZ=              2.3916  XYZ=              1.0719
 Hexadecapole moment (field-independent basis, Debye-Ang**3):
 XXXX=          -4953.5953 YYYY=           -512.4615 ZZZZ=           -308.3300 XXXY=           -152.4609
 XXXZ=            -67.1697 YYYX=            -19.6735 YYYZ=             -7.3913 ZZZX=             -1.4625
 ZZZY=             -5.7278 XXYY=           -930.1003 XXZZ=           -859.3199 YYZZ=           -141.2920
 XXYZ=            -16.0402 YYXZ=             -2.1685 ZZXY=             -1.1388
 N-N= 6.911541542794D+02 E-N=-3.809358653752D+03  KE= 7.487857849513D+02
                          Isotropic Fermi Contact Couplings
        Atom                 a.u.       MegaHertz       Gauss      10(-4) cm-1
     1  C(13)             -0.00590      -6.63339      -2.36696      -2.21266
     2  C(13)             -0.00461      -5.18213      -1.84911      -1.72857
     3  C(13)              0.13661     153.57388      54.79898      51.22673
     4  N(14)              0.04085      13.20041       4.71024       4.40318
     5  H(1)               0.00047       2.12177       0.75710       0.70775
     6  H(1)               0.00046       2.06359       0.73634       0.68834
     7  H(1)               0.01656      74.04004      26.41933      24.69710
     8  N(14)              0.03626      11.71599       4.18056       3.90803
     9  C(13)              0.01377      15.48175       5.52427       5.16416
    10  H(1)               0.00091       4.05410       1.44660       1.35230
    11  H(1)               0.00020       0.89598       0.31971       0.29887
    12  C(13)              0.00223       2.50986       0.89558       0.83720
    13  H(1)              -0.00035      -1.58607      -0.56595      -0.52906
    14  H(1)              -0.00046      -2.07098      -0.73898      -0.69080
    15  C(13)             -0.00103      -1.15746      -0.41301      -0.38609
    16  H(1)               0.00032       1.44462       0.51548       0.48187
    17  H(1)               0.00002       0.09354       0.03338       0.03120
    18  C(13)              0.00149       1.67012       0.59594       0.55709
    19  H(1)              -0.00001      -0.06551      -0.02337      -0.02185
    20  H(1)              -0.00002      -0.07278      -0.02597      -0.02428
    21  C(13)              0.00015       0.16532       0.05899       0.05514
    22  H(1)              -0.00001      -0.02668      -0.00952      -0.00890
    23  H(1)               0.00000      -0.01287      -0.00459      -0.00429
    24  C(13)              0.00005       0.05835       0.02082       0.01946
    25  H(1)               0.00001       0.06107       0.02179       0.02037
    26  H(1)               0.00000       0.00973       0.00347       0.00324
    27  H(1)               0.00000       0.00246       0.00088       0.00082
    28  C(13)              0.03021      33.96541      12.11970      11.32964
    29  H(1)              -0.00040      -1.77390      -0.63297      -0.59171
    30  H(1)               0.00297      13.25782       4.73072       4.42233
    31  H(1)               0.00140       6.25552       2.23212       2.08662
 --------------------------------------------------------
       Center         ----  Spin Dipole Couplings  ----
                      3XX-RR        3YY-RR        3ZZ-RR
 --------------------------------------------------------
     1   Atom       -0.011641     -0.001500      0.013140
     2   Atom        0.000522     -0.010600      0.010078
     3   Atom        0.052033      0.265862     -0.317895
     4   Atom       -0.141092      0.321346     -0.180253
     5   Atom       -0.002981     -0.000760      0.003741
     6   Atom       -0.001325     -0.003439      0.004764
     7   Atom       -0.026443     -0.021192      0.047635
     8   Atom        0.211478     -0.017035     -0.194443
     9   Atom        0.022243     -0.007959     -0.014284
    10   Atom        0.003162     -0.001532     -0.001629
    11   Atom        0.002732      0.002877     -0.005609
    12   Atom       -0.003083      0.019544     -0.016461
    13   Atom        0.002023     -0.003433      0.001410
    14   Atom        0.010693     -0.003794     -0.006899
    15   Atom        0.003113     -0.001387     -0.001726
    16   Atom        0.002040     -0.000723     -0.001317
    17   Atom        0.002658     -0.001384     -0.001274
    18   Atom        0.002288     -0.001002     -0.001286
    19   Atom        0.001764     -0.000644     -0.001120
    20   Atom        0.001309     -0.000909     -0.000399
    21   Atom        0.001255     -0.000613     -0.000642
    22   Atom        0.000788     -0.000351     -0.000437
    23   Atom        0.000892     -0.000478     -0.000414
    24   Atom        0.000603     -0.000291     -0.000312
    25   Atom        0.000429     -0.000213     -0.000216
    26   Atom        0.000552     -0.000240     -0.000312
    27   Atom        0.000494     -0.000278     -0.000216
    28   Atom        0.006502      0.006594     -0.013096
    29   Atom        0.004741     -0.000342     -0.004399
    30   Atom       -0.002644      0.007963     -0.005319
    31   Atom        0.002579      0.000947     -0.003526
 --------------------------------------------------------
                        XY            XZ            YZ
 --------------------------------------------------------
     1   Atom       -0.004165     -0.000243     -0.002376
     2   Atom        0.003717      0.000949     -0.000456
     3   Atom        0.467332      0.064860      0.082115
     4   Atom        0.289957      0.118011      0.248959
     5   Atom       -0.001180      0.000815     -0.004436
     6   Atom       -0.000237     -0.004338     -0.000536
     7   Atom        0.012703      0.008844      0.001609
     8   Atom        0.346917      0.193943      0.138698
     9   Atom       -0.014532     -0.006328     -0.000353
    10   Atom       -0.005868     -0.006611      0.003311
    11   Atom       -0.007334      0.001508     -0.001057
    12   Atom        0.011820      0.006118      0.006160
    13   Atom       -0.000368      0.003691     -0.000415
    14   Atom       -0.000243      0.005017     -0.001810
    15   Atom       -0.000773      0.000313     -0.000055
    16   Atom       -0.001374      0.000331     -0.000076
    17   Atom       -0.000714     -0.001088      0.000189
    18   Atom        0.001048      0.001130      0.000475
    19   Atom        0.000742      0.000320      0.000044
    20   Atom        0.000099      0.000919      0.000073
    21   Atom       -0.000198     -0.000036      0.000025
    22   Atom       -0.000213      0.000110     -0.000026
    23   Atom       -0.000020     -0.000176      0.000002
    24   Atom        0.000134      0.000143      0.000025
    25   Atom        0.000044      0.000052      0.000005
    26   Atom        0.000220      0.000090      0.000021
    27   Atom        0.000081      0.000229      0.000027
    28   Atom       -0.021650     -0.000499     -0.002857
    29   Atom       -0.006136     -0.003728      0.002878
    30   Atom       -0.004861     -0.002919      0.004118
    31   Atom       -0.007229      0.003951     -0.004595
 --------------------------------------------------------


 ---------------------------------------------------------------------------------
              Anisotropic Spin Dipole Couplings in Principal Axis System
 ---------------------------------------------------------------------------------

       Atom             a.u.   MegaHertz   Gauss  10(-4) cm-1        Axes

              Baa    -0.0132    -1.768    -0.631    -0.590  0.9385  0.3429  0.0396
     1 C(13)  Bbb    -0.0004    -0.047    -0.017    -0.016 -0.3448  0.9255  0.1568
              Bcc     0.0135     1.815     0.648     0.605  0.0171 -0.1608  0.9868
 
              Baa    -0.0118    -1.577    -0.563    -0.526 -0.2920  0.9559  0.0327
     2 C(13)  Bbb     0.0016     0.212     0.076     0.071  0.9516  0.2938 -0.0905
              Bcc     0.0102     1.365     0.487     0.455  0.0961 -0.0047  0.9954
 
              Baa    -0.3292   -44.180   -15.765   -14.737 -0.0261 -0.1165  0.9928
     3 C(13)  Bbb    -0.3204   -42.999   -15.343   -14.343  0.7845 -0.6180 -0.0519
              Bcc     0.6497    87.179    31.108    29.080  0.6196  0.7775  0.1075
 
              Baa    -0.2833   -10.928    -3.899    -3.645  0.3416 -0.4932  0.8000
     4 N(14)  Bbb    -0.2798   -10.790    -3.850    -3.599  0.8475 -0.2063 -0.4891
              Bcc     0.5631    21.717     7.749     7.244  0.4062  0.8451  0.3475
 
              Baa    -0.0039    -2.091    -0.746    -0.697  0.5983  0.7193  0.3530
     5 H(1)   Bbb    -0.0027    -1.454    -0.519    -0.485  0.7897 -0.4549 -0.4116
              Bcc     0.0066     3.545     1.265     1.183  0.1355 -0.5250  0.8402
 
              Baa    -0.0040    -2.122    -0.757    -0.708  0.6596  0.6557  0.3675
     6 H(1)   Bbb    -0.0031    -1.630    -0.582    -0.544 -0.5947  0.7542 -0.2783
              Bcc     0.0070     3.752     1.339     1.251 -0.4596 -0.0350  0.8874
 
              Baa    -0.0372   -19.848    -7.082    -6.621  0.7848 -0.6157 -0.0701
     7 H(1)   Bbb    -0.0116    -6.198    -2.212    -2.067  0.6072  0.7866 -0.1120
              Bcc     0.0488    26.046     9.294     8.688  0.1241  0.0453  0.9912
 
              Baa    -0.2722   -10.499    -3.746    -3.502 -0.4065  0.0570  0.9119
     8 N(14)  Bbb    -0.2677   -10.323    -3.683    -3.443 -0.4904  0.8285 -0.2704
              Bcc     0.5399    20.822     7.430     6.946  0.7709  0.5571  0.3088
 
              Baa    -0.0172    -2.304    -0.822    -0.769  0.3240  0.5409  0.7762
     9 C(13)  Bbb    -0.0117    -1.569    -0.560    -0.523  0.2100  0.7589 -0.6165
              Bcc     0.0289     3.873     1.382     1.292  0.9224 -0.3628 -0.1323
 
              Baa    -0.0065    -3.470    -1.238    -1.157  0.6620  0.3349  0.6705
    10 H(1)   Bbb    -0.0048    -2.563    -0.915    -0.855  0.1452  0.8203 -0.5532
              Bcc     0.0113     6.033     2.153     2.012  0.7353 -0.4636 -0.4944
 
              Baa    -0.0059    -3.144    -1.122    -1.049 -0.2422 -0.0861  0.9664
    11 H(1)   Bbb    -0.0045    -2.375    -0.848    -0.792  0.6709  0.7047  0.2310
              Bcc     0.0103     5.520     1.970     1.841 -0.7009  0.7043 -0.1129
 
              Baa    -0.0189    -2.538    -0.906    -0.846 -0.3269 -0.0507  0.9437
    12 C(13)  Bbb    -0.0072    -0.969    -0.346    -0.323  0.8553 -0.4405  0.2727
              Bcc     0.0261     3.507     1.251     1.170  0.4019  0.8963  0.1874
 
              Baa    -0.0035    -1.851    -0.661    -0.617  0.0200  0.9974  0.0696
    13 H(1)   Bbb    -0.0020    -1.059    -0.378    -0.353 -0.6788 -0.0376  0.7334
              Bcc     0.0055     2.910     1.039     0.971  0.7341 -0.0619  0.6762
 
              Baa    -0.0088    -4.695    -1.675    -1.566 -0.2323  0.3207  0.9183
    14 H(1)   Bbb    -0.0033    -1.736    -0.620    -0.579  0.1240  0.9462 -0.2990
              Bcc     0.0121     6.432     2.295     2.145  0.9647 -0.0444  0.2596
 
              Baa    -0.0017    -0.234    -0.084    -0.078 -0.0608  0.0218  0.9979
    15 C(13)  Bbb    -0.0015    -0.204    -0.073    -0.068  0.1655  0.9861 -0.0114
              Bcc     0.0033     0.438     0.156     0.146  0.9843 -0.1645  0.0635
 
              Baa    -0.0014    -0.736    -0.263    -0.246 -0.2664 -0.4588  0.8477
    16 H(1)   Bbb    -0.0013    -0.670    -0.239    -0.223  0.2823  0.8037  0.5238
              Bcc     0.0026     1.406     0.502     0.469  0.9216 -0.3788  0.0846
 
              Baa    -0.0016    -0.830    -0.296    -0.277  0.2332 -0.0985  0.9674
    17 H(1)   Bbb    -0.0015    -0.804    -0.287    -0.268  0.1828  0.9816  0.0559
              Bcc     0.0031     1.634     0.583     0.545  0.9551 -0.1638 -0.2469
 
              Baa    -0.0017    -0.226    -0.081    -0.075 -0.1537 -0.3941  0.9061
    18 C(13)  Bbb    -0.0013    -0.169    -0.060    -0.056 -0.3607  0.8761  0.3199
              Bcc     0.0029     0.395     0.141     0.132  0.9199  0.2777  0.2768
 
              Baa    -0.0012    -0.619    -0.221    -0.206 -0.1361  0.1121  0.9843
    19 H(1)   Bbb    -0.0008    -0.452    -0.161    -0.151 -0.2540  0.9564 -0.1441
              Bcc     0.0020     1.071     0.382     0.357  0.9576  0.2696  0.1017
 
              Baa    -0.0009    -0.491    -0.175    -0.164  0.0472  0.9744 -0.2197
    20 H(1)   Bbb    -0.0008    -0.423    -0.151    -0.141 -0.3994  0.2200  0.8900
              Bcc     0.0017     0.915     0.326     0.305  0.9155  0.0457  0.3996
 
              Baa    -0.0007    -0.088    -0.032    -0.030 -0.0496 -0.6232  0.7805
    21 C(13)  Bbb    -0.0006    -0.083    -0.030    -0.028  0.0939  0.7751  0.6248
              Bcc     0.0013     0.171     0.061     0.057  0.9943 -0.1043 -0.0201
 
              Baa    -0.0004    -0.239    -0.085    -0.080 -0.0680  0.1151  0.9910
    22 H(1)   Bbb    -0.0004    -0.208    -0.074    -0.069  0.1864  0.9773 -0.1007
              Bcc     0.0008     0.447     0.159     0.149  0.9801 -0.1779  0.0879
 
              Baa    -0.0005    -0.255    -0.091    -0.085  0.0166  0.9998  0.0148
    23 H(1)   Bbb    -0.0004    -0.233    -0.083    -0.078  0.1310 -0.0168  0.9912
              Bcc     0.0009     0.489     0.174     0.163  0.9912 -0.0146 -0.1312
 
              Baa    -0.0003    -0.045    -0.016    -0.015 -0.1238 -0.1744  0.9769
    24 C(13)  Bbb    -0.0003    -0.042    -0.015    -0.014 -0.1663  0.9741  0.1528
              Bcc     0.0006     0.087     0.031     0.029  0.9783  0.1436  0.1496
 
              Baa    -0.0002    -0.118    -0.042    -0.039 -0.0546 -0.3059  0.9505
    25 H(1)   Bbb    -0.0002    -0.115    -0.041    -0.038 -0.0889  0.9496  0.3006
              Bcc     0.0004     0.233     0.083     0.078  0.9945  0.0681  0.0790
 
              Baa    -0.0003    -0.172    -0.061    -0.057 -0.1225  0.0809  0.9892
    26 H(1)   Bbb    -0.0003    -0.158    -0.056    -0.053 -0.2382  0.9651 -0.1085
              Bcc     0.0006     0.330     0.118     0.110  0.9635  0.2489  0.0989
 
              Baa    -0.0003    -0.154    -0.055    -0.051  0.0605  0.8570 -0.5118
    27 H(1)   Bbb    -0.0003    -0.150    -0.053    -0.050 -0.2926  0.5054  0.8118
              Bcc     0.0006     0.304     0.108     0.101  0.9543  0.1007  0.2813
 
              Baa    -0.0167    -2.240    -0.799    -0.747  0.5731  0.6011  0.5570
    28 C(13)  Bbb    -0.0116    -1.553    -0.554    -0.518 -0.4191 -0.3691  0.8295
              Bcc     0.0283     3.793     1.353     1.265 -0.7042  0.7088 -0.0405
 
              Baa    -0.0060    -3.179    -1.134    -1.061  0.1367 -0.3293  0.9343
    29 H(1)   Bbb    -0.0044    -2.337    -0.834    -0.780  0.5997  0.7782  0.1866
              Bcc     0.0103     5.517     1.968     1.840  0.7885 -0.5348 -0.3038
 
              Baa    -0.0073    -3.879    -1.384    -1.294  0.4606 -0.0917  0.8828
    30 H(1)   Bbb    -0.0040    -2.153    -0.768    -0.718  0.8077  0.4557 -0.3741
              Bcc     0.0113     6.032     2.152     2.012 -0.3680  0.8854  0.2840
 
              Baa    -0.0065    -3.464    -1.236    -1.155  0.1869  0.6413  0.7442
    31 H(1)   Bbb    -0.0050    -2.647    -0.944    -0.883  0.7089  0.4364 -0.5541
              Bcc     0.0115     6.111     2.181     2.038  0.6801 -0.6311  0.3730
 

 ---------------------------------------------------------------------------------

 1\1\GINC-N0646\FOpt\UM062X\6-311+G(d)\C10H19N2(2)\WAB665\10-Mar-2017\0
 \\# opt M062X/6-311+G* geom=connectivity\\Title Card Required\\0,2\C,-
 0.0780563921,-0.9956934439,0.1031458298\C,1.2504141057,-0.9138773424,-
 0.1006905309\C,0.4966370398,1.1859328036,0.2764795739\N,-0.55159,0.258
 239507,0.4765968069\H,-0.7285213513,-1.8562788808,0.0730761024\H,1.961
 1494094,-1.6895804978,-0.3383767766\H,0.5460079589,2.0378903685,0.9567
 936039\N,1.6601664843,0.39459857,0.1409577884\C,-1.9344302863,0.651034
 0378,0.2691603168\H,-2.0957175939,1.5866311576,0.8132997311\H,-2.57334
 00043,-0.1042889602,0.7381094898\C,-2.3036421617,0.8257600669,-1.20307
 20178\H,-2.1719464066,-0.1326683756,-1.7189379528\H,-1.5919510207,1.52
 3536326,-1.6560900913\C,-3.7329212876,1.3258672428,-1.3837675165\H,-4.
 4313284364,0.6449218028,-0.8801941823\H,-3.8444568324,2.2977341684,-0.
 8869037381\C,-4.1342484377,1.4617185071,-2.8502387076\H,-3.4274365291,
 2.1282536147,-3.3596148002\H,-4.0409681142,0.4864493277,-3.3438967497\
 C,-5.5538981102,1.989783021,-3.0391497264\H,-6.2580754709,1.3289203226
 ,-2.521015461\H,-5.6424495608,2.9690454534,-2.5554454788\C,-5.94490929
 67,2.1056719964,-4.5095119935\H,-6.9608815636,2.4878123985,-4.62889091
 28\H,-5.270028859,2.7810869554,-5.0422202845\H,-5.8949589671,1.1327451
 943,-5.0057726621\C,2.838359995,0.9533817072,-0.4850276844\H,3.6661818
 357,0.2487239087,-0.3968635673\H,2.6590180199,1.1791659942,-1.54344888
 97\H,3.115821834,1.876483048,0.0255104814\\Version=EM64L-G09RevA.02\St
 ate=2-A\HF=-501.810181\S2=0.756352\S2-1=0.\S2A=0.750026\RMSD=2.998e-09
 \RMSF=3.608e-06\Dipole=-0.0476764,-0.1978137,-0.0886809\Quadrupole=3.9
 256322,1.1014405,-5.0270727,-0.3098142,-1.5274543,1.0313973\PG=C01 [X(
 C10H19N2)]\\@


 DEFINE YOUR TERMS, YOU WILL PERMIT ME AGAIN TO SAY, 
 OR WE SHALL NEVER UNDERSTAND ONE ANOTHER.

                                    -- VOLTAIRE
 Job cpu time:  1 days 12 hours 29 minutes 22.4 seconds.
 File lengths (MBytes):  RWF=    240 Int=      0 D2E=      0 Chk=     24 Scr=      4
 Normal termination of Gaussian 09 at Fri Mar 10 05:55:57 2017.
 File lengths (MBytes):  RWF=    240 Int=      0 D2E=      0 Chk=     24 Scr=      4
 Normal termination of Gaussian 09 at Fri Mar 10 05:55:18 2017.
ion of Gaussian 09 at Fri Mar 10 05:47:41 2017.
HEY CAME IN....
           LEVIATHAN
 Job cpu time:  1 days 12 hours 20 minutes 11.9 seconds.
 File lengths (MBytes):  RWF=    240 Int=      0 D2E=      0 Chk=     24 Scr=      4
 Normal termination of Gaussian 09 at Fri Mar 10 05:47:18 2017.
