 Entering Gaussian System, Link 0=g09
 Input=MTS.com
 Output=MTS.log
 Initial command:
 /gscratch/pfaendtner/codes/G09/g09/l1.exe /gscratch/pfaendtner/wesley/gaussian/Gau-31573.inp -scrdir=/gscratch/pfaendtner/wesley/gaussian/
 Entering Link 1 = /gscratch/pfaendtner/codes/G09/g09/l1.exe PID=     31574.
  
 Copyright (c) 1988,1990,1992,1993,1995,1998,2003,2009, Gaussian, Inc.
                  All Rights Reserved.
  
 This is part of the Gaussian(R) 09 program.  It is based on
 the Gaussian(R) 03 system (copyright 2003, Gaussian, Inc.),
 the Gaussian(R) 98 system (copyright 1998, Gaussian, Inc.),
 the Gaussian(R) 94 system (copyright 1995, Gaussian, Inc.),
 the Gaussian 92(TM) system (copyright 1992, Gaussian, Inc.),
 the Gaussian 90(TM) system (copyright 1990, Gaussian, Inc.),
 the Gaussian 88(TM) system (copyright 1988, Gaussian, Inc.),
 the Gaussian 86(TM) system (copyright 1986, Carnegie Mellon
 University), and the Gaussian 82(TM) system (copyright 1983,
 Carnegie Mellon University). Gaussian is a federally registered
 trademark of Gaussian, Inc.
  
 This software contains proprietary and confidential information,
 including trade secrets, belonging to Gaussian, Inc.
  
 This software is provided under written license and may be
 used, copied, transmitted, or stored only in accord with that
 written license.
  
 The following legend is applicable only to US Government
 contracts under FAR:
  
                    RESTRICTED RIGHTS LEGEND
  
 Use, reproduction and disclosure by the US Government is
 subject to restrictions as set forth in subparagraphs (a)
 and (c) of the Commercial Computer Software - Restricted
 Rights clause in FAR 52.227-19.
  
 Gaussian, Inc.
 340 Quinnipiac St., Bldg. 40, Wallingford CT 06492
  
  
 ---------------------------------------------------------------
 Warning -- This program may not be used in any manner that
 competes with the business of Gaussian, Inc. or will provide
 assistance to any competitor of Gaussian, Inc.  The licensee
 of this program is prohibited from giving any competitor of
 Gaussian, Inc. access to this program.  By using this program,
 the user acknowledges that Gaussian, Inc. is engaged in the
 business of creating and licensing software in the field of
 computational chemistry and represents and warrants to the
 licensee that it is not a competitor of Gaussian, Inc. and that
 it will not use this program in any manner prohibited above.
 ---------------------------------------------------------------
  

 Cite this work as:
 Gaussian 09, Revision A.02,
 M. J. Frisch, G. W. Trucks, H. B. Schlegel, G. E. Scuseria, 
 M. A. Robb, J. R. Cheeseman, G. Scalmani, V. Barone, B. Mennucci, 
 G. A. Petersson, H. Nakatsuji, M. Caricato, X. Li, H. P. Hratchian, 
 A. F. Izmaylov, J. Bloino, G. Zheng, J. L. Sonnenberg, M. Hada, 
 M. Ehara, K. Toyota, R. Fukuda, J. Hasegawa, M. Ishida, T. Nakajima, 
 Y. Honda, O. Kitao, H. Nakai, T. Vreven, J. A. Montgomery, Jr., 
 J. E. Peralta, F. Ogliaro, M. Bearpark, J. J. Heyd, E. Brothers, 
 K. N. Kudin, V. N. Staroverov, R. Kobayashi, J. Normand, 
 K. Raghavachari, A. Rendell, J. C. Burant, S. S. Iyengar, J. Tomasi, 
 M. Cossi, N. Rega, J. M. Millam, M. Klene, J. E. Knox, J. B. Cross, 
 V. Bakken, C. Adamo, J. Jaramillo, R. Gomperts, R. E. Stratmann, 
 O. Yazyev, A. J. Austin, R. Cammi, C. Pomelli, J. W. Ochterski, 
 R. L. Martin, K. Morokuma, V. G. Zakrzewski, G. A. Voth, 
 P. Salvador, J. J. Dannenberg, S. Dapprich, A. D. Daniels, 
 O. Farkas, J. B. Foresman, J. V. Ortiz, J. Cioslowski, 
 and D. J. Fox, Gaussian, Inc., Wallingford CT, 2009.
 
 ******************************************
 Gaussian 09:  EM64L-G09RevA.02 11-Jun-2009
                 8-Mar-2017 
 ******************************************
 %chk=MTS.chk
 %nprocshared=2
 Will use up to    2 processors via shared memory.
 --------------------------------------
 # opt M062X/6-311+G* geom=connectivity
 --------------------------------------
 1/14=-1,18=20,19=15,26=3,38=1,57=2/1,3;
 2/9=110,12=2,17=6,18=5,40=1/2;
 3/5=4,6=6,7=11,11=2,16=1,25=1,30=1,71=1,74=-55/1,2,3;
 4//1;
 5/5=2,38=5/2;
 6/7=2,8=2,9=2,10=2,28=1/1;
 7//1,2,3,16;
 1/14=-1,18=20,19=15/3(2);
 2/9=110/2;
 99//99;
 2/9=110/2;
 3/5=4,6=6,7=11,11=2,16=1,25=1,30=1,71=1,74=-55/1,2,3;
 4/5=5,16=3/1;
 5/5=2,38=5/2;
 7//1,2,3,16;
 1/14=-1,18=20,19=15/3(-5);
 2/9=110/2;
 6/7=2,8=2,9=2,10=2,19=2,28=1/1;
 99/9=1/99;
 -------------------
 Title Card Required
 -------------------
 Symbolic Z-matrix:
 Charge =  0 Multiplicity = 2
 S(PDBName=S1,ResName=MTS,ResNum=1) -2.36      0.699     0.079 
 O(PDBName=O1,ResName=MTS,ResNum=1) -2.342    -0.726     0.322 
 O(PDBName=O2,ResName=MTS,ResNum=1) -1.663     1.092    -1.126 
 O(PDBName=O3,ResName=MTS,ResNum=1) -3.628     1.342     0.291 
 O(PDBName=O4,ResName=MTS,ResNum=1) -1.461     1.327     1.289 
 C(PDBName=C1,ResName=MTS,ResNum=1) -0.135     0.889     1.361 
 H(PDBName=H1,ResName=MTS,ResNum=1)  0.408     1.145     0.459 
 H(PDBName=H2,ResName=MTS,ResNum=1)  0.316     1.395     2.208 
 H(PDBName=H3,ResName=MTS,ResNum=1) -0.088    -0.182     1.516 
 

 GradGradGradGradGradGradGradGradGradGradGradGradGradGradGradGradGradGrad
 Berny optimization.
 Initialization pass.
                           ----------------------------
                           !    Initial Parameters    !
                           ! (Angstroms and Degrees)  !
 --------------------------                            --------------------------
 ! Name  Definition              Value          Derivative Info.                !
 --------------------------------------------------------------------------------
 ! R1    R(1,2)                  1.4457         estimate D2E/DX2                !
 ! R2    R(1,3)                  1.4465         estimate D2E/DX2                !
 ! R3    R(1,4)                  1.4374         estimate D2E/DX2                !
 ! R4    R(1,5)                  1.633          estimate D2E/DX2                !
 ! R5    R(5,6)                  1.3983         estimate D2E/DX2                !
 ! R6    R(6,7)                  1.0835         estimate D2E/DX2                !
 ! R7    R(6,8)                  1.0848         estimate D2E/DX2                !
 ! R8    R(6,9)                  1.0832         estimate D2E/DX2                !
 ! A1    A(2,1,3)              113.693          estimate D2E/DX2                !
 ! A2    A(2,1,4)              115.2848         estimate D2E/DX2                !
 ! A3    A(2,1,5)              104.3394         estimate D2E/DX2                !
 ! A4    A(3,1,4)              115.2388         estimate D2E/DX2                !
 ! A5    A(3,1,5)              104.3303         estimate D2E/DX2                !
 ! A6    A(4,1,5)              101.7897         estimate D2E/DX2                !
 ! A7    A(1,5,6)              116.0874         estimate D2E/DX2                !
 ! A8    A(5,6,7)              110.9994         estimate D2E/DX2                !
 ! A9    A(5,6,8)              106.7582         estimate D2E/DX2                !
 ! A10   A(5,6,9)              110.9913         estimate D2E/DX2                !
 ! A11   A(7,6,8)              109.3554         estimate D2E/DX2                !
 ! A12   A(7,6,9)              109.3291         estimate D2E/DX2                !
 ! A13   A(8,6,9)              109.3553         estimate D2E/DX2                !
 ! D1    D(2,1,5,6)             59.7679         estimate D2E/DX2                !
 ! D2    D(3,1,5,6)            -59.7951         estimate D2E/DX2                !
 ! D3    D(4,1,5,6)           -179.9864         estimate D2E/DX2                !
 ! D4    D(1,5,6,7)             60.9085         estimate D2E/DX2                !
 ! D5    D(1,5,6,8)           -179.9914         estimate D2E/DX2                !
 ! D6    D(1,5,6,9)            -60.896          estimate D2E/DX2                !
 --------------------------------------------------------------------------------
 Trust Radius=3.00D-01 FncErr=1.00D-07 GrdErr=1.00D-06
 Number of steps in this run=  37 maximum allowed number of steps= 100.
 GradGradGradGradGradGradGradGradGradGradGradGradGradGradGradGradGradGrad

                          Input orientation:                          
 ---------------------------------------------------------------------
 Center     Atomic      Atomic             Coordinates (Angstroms)
 Number     Number       Type             X           Y           Z
 ---------------------------------------------------------------------
      1         16           0       -2.360000    0.699000    0.079000
      2          8           0       -2.342000   -0.726000    0.322000
      3          8           0       -1.663000    1.092000   -1.126000
      4          8           0       -3.628000    1.342000    0.291000
      5          8           0       -1.461000    1.327000    1.289000
      6          6           0       -0.135000    0.889000    1.361000
      7          1           0        0.408000    1.145000    0.459000
      8          1           0        0.316000    1.395000    2.208000
      9          1           0       -0.088000   -0.182000    1.516000
 ---------------------------------------------------------------------
                    Distance matrix (angstroms):
                    1          2          3          4          5
     1  S    0.000000
     2  O    1.445683   0.000000
     3  O    1.446473   2.421336   0.000000
     4  O    1.437434   2.435443   2.435491   0.000000
     5  O    1.632999   2.434350   2.434801   2.385816   0.000000
     6  C    2.574927   2.925508   2.925946   3.681190   1.398322
     7  H    2.829336   3.328950   2.608462   4.044296   2.053092
     8  H    3.489704   3.888522   3.888934   4.385526   2.001728
     9  H    2.828978   2.608081   3.329244   4.044107   2.052739
                    6          7          8          9
     6  C    0.000000
     7  H    1.083508   0.000000
     8  H    1.084825   1.769171   0.000000
     9  H    1.083178   1.767539   1.768901   0.000000
 Stoichiometry    CH3O4S(2)
 Framework group  C1[X(CH3O4S)]
 Deg. of freedom    21
 Full point group                 C1      NOp   1
 Largest Abelian subgroup         C1      NOp   1
 Largest concise Abelian subgroup C1      NOp   1
                         Standard orientation:                         
 ---------------------------------------------------------------------
 Center     Atomic      Atomic             Coordinates (Angstroms)
 Number     Number       Type             X           Y           Z
 ---------------------------------------------------------------------
      1         16           0       -0.498302   -0.046197    0.000515
      2          8           0       -0.444534   -0.828988    1.214741
      3          8           0       -0.444972   -0.841434   -1.206563
      4          8           0       -1.471100    1.012032   -0.005172
      5          8           0        0.904361    0.789986   -0.004056
      6          6           0        2.075609    0.026135   -0.000265
      7          1           0        2.132035   -0.602516   -0.880948
      8          1           0        2.905044    0.725328   -0.003877
      9          1           0        2.132055   -0.593234    0.886567
 ---------------------------------------------------------------------
 Rotational constants (GHZ):      5.1325392      2.8179806      2.7939732
 Standard basis: 6-311+G(d) (5D, 7F)
 There are   149 symmetry adapted basis functions of A   symmetry.
 Integral buffers will be    131072 words long.
 Raffenetti 2 integral format.
 Two-electron integral symmetry is turned on.
   149 basis functions,   245 primitive gaussians,   155 cartesian basis functions
    29 alpha electrons       28 beta electrons
       nuclear repulsion energy       363.6175223676 Hartrees.
 NAtoms=    9 NActive=    9 NUniq=    9 SFac= 7.50D-01 NAtFMM=   80 NAOKFM=F Big=F
 One-electron integrals computed using PRISM.
 NBasis=   149 RedAO= T  NBF=   149
 NBsUse=   149 1.00D-06 NBFU=   149
 Harris functional with IExCor= 1009 diagonalized for initial guess.
 ExpMin= 4.05D-02 ExpMax= 9.34D+04 ExpMxC= 3.17D+03 IAcc=2 IRadAn=         0 AccDes= 0.00D+00
 HarFok:  IExCor= 1009 AccDes= 0.00D+00 IRadAn=         0 IDoV= 1
 ScaDFX=  1.000000  1.000000  1.000000  1.000000
 FoFCou: FMM=F IPFlag=           0 FMFlag=      100000 FMFlg1=           0
         NFxFlg=           0 DoJE=T BraDBF=F KetDBF=T FulRan=T
         Omega=  0.000000  0.000000  1.000000  0.000000  0.000000 ICntrl=     500 IOpCl=  0
         NMat0=    1 NMatS0=    1 NMatT0=    0 NMatD0=    1 NMtDS0=    0 NMtDT0=    0
         I1Cent=           4 NGrid=           0.
 Petite list used in FoFCou.
 Initial guess orbital symmetries:
 Alpha Orbitals:
       Occupied  (A) (A) (A) (A) (A) (A) (A) (A) (A) (A) (A) (A)
                 (A) (A) (A) (A) (A) (A) (A) (A) (A) (A) (A) (A)
                 (A) (A) (A) (A) (A)
       Virtual   (A) (A) (A) (A) (A) (A) (A) (A) (A) (A) (A) (A)
                 (A) (A) (A) (A) (A) (A) (A) (A) (A) (A) (A) (A)
                 (A) (A) (A) (A) (A) (A) (A) (A) (A) (A) (A) (A)
                 (A) (A) (A) (A) (A) (A) (A) (A) (A) (A) (A) (A)
                 (A) (A) (A) (A) (A) (A) (A) (A) (A) (A) (A) (A)
                 (A) (A) (A) (A) (A) (A) (A) (A) (A) (A) (A) (A)
                 (A) (A) (A) (A) (A) (A) (A) (A) (A) (A) (A) (A)
                 (A) (A) (A) (A) (A) (A) (A) (A) (A) (A) (A) (A)
                 (A) (A) (A) (A) (A) (A) (A) (A) (A) (A) (A) (A)
                 (A) (A) (A) (A) (A) (A) (A) (A) (A) (A) (A) (A)
 Beta  Orbitals:
       Occupied  (A) (A) (A) (A) (A) (A) (A) (A) (A) (A) (A) (A)
                 (A) (A) (A) (A) (A) (A) (A) (A) (A) (A) (A) (A)
                 (A) (A) (A) (A)
       Virtual   (A) (A) (A) (A) (A) (A) (A) (A) (A) (A) (A) (A)
                 (A) (A) (A) (A) (A) (A) (A) (A) (A) (A) (A) (A)
                 (A) (A) (A) (A) (A) (A) (A) (A) (A) (A) (A) (A)
                 (A) (A) (A) (A) (A) (A) (A) (A) (A) (A) (A) (A)
                 (A) (A) (A) (A) (A) (A) (A) (A) (A) (A) (A) (A)
                 (A) (A) (A) (A) (A) (A) (A) (A) (A) (A) (A) (A)
                 (A) (A) (A) (A) (A) (A) (A) (A) (A) (A) (A) (A)
                 (A) (A) (A) (A) (A) (A) (A) (A) (A) (A) (A) (A)
                 (A) (A) (A) (A) (A) (A) (A) (A) (A) (A) (A) (A)
                 (A) (A) (A) (A) (A) (A) (A) (A) (A) (A) (A) (A)
                 (A)
 The electronic state of the initial guess is 2-A.
 Initial guess <Sx>= 0.0000 <Sy>= 0.0000 <Sz>= 0.5000 <S**2>= 0.7500 S= 0.5000
 Requested convergence on RMS density matrix=1.00D-08 within 128 cycles.
 Requested convergence on MAX density matrix=1.00D-06.
 Requested convergence on             energy=1.00D-06.
 No special actions if energy rises.
 Rare condition: small coef for last iteration:  0.000D+00
 Restarting incremental Fock formation.
 SCF Done:  E(UM062X) =  -738.784437652     A.U. after   29 cycles
             Convg  =    0.2062D-08             -V/T =  2.0015
 <Sx>= 0.0000 <Sy>= 0.0000 <Sz>= 0.5000 <S**2>= 0.7696 S= 0.5098
 <L.S>= 0.000000000000E+00
 Annihilation of the first spin contaminant:
 S**2 before annihilation     0.7696,   after     0.7502

 **********************************************************************

            Population analysis using the SCF density.

 **********************************************************************

 Orbital symmetries:
 Alpha Orbitals:
       Occupied  (A) (A) (A) (A) (A) (A) (A) (A) (A) (A) (A) (A)
                 (A) (A) (A) (A) (A) (A) (A) (A) (A) (A) (A) (A)
                 (A) (A) (A) (A) (A)
       Virtual   (A) (A) (A) (A) (A) (A) (A) (A) (A) (A) (A) (A)
                 (A) (A) (A) (A) (A) (A) (A) (A) (A) (A) (A) (A)
                 (A) (A) (A) (A) (A) (A) (A) (A) (A) (A) (A) (A)
                 (A) (A) (A) (A) (A) (A) (A) (A) (A) (A) (A) (A)
                 (A) (A) (A) (A) (A) (A) (A) (A) (A) (A) (A) (A)
                 (A) (A) (A) (A) (A) (A) (A) (A) (A) (A) (A) (A)
                 (A) (A) (A) (A) (A) (A) (A) (A) (A) (A) (A) (A)
                 (A) (A) (A) (A) (A) (A) (A) (A) (A) (A) (A) (A)
                 (A) (A) (A) (A) (A) (A) (A) (A) (A) (A) (A) (A)
                 (A) (A) (A) (A) (A) (A) (A) (A) (A) (A) (A) (A)
 Beta  Orbitals:
       Occupied  (A) (A) (A) (A) (A) (A) (A) (A) (A) (A) (A) (A)
                 (A) (A) (A) (A) (A) (A) (A) (A) (A) (A) (A) (A)
                 (A) (A) (A) (A)
       Virtual   (A) (A) (A) (A) (A) (A) (A) (A) (A) (A) (A) (A)
                 (A) (A) (A) (A) (A) (A) (A) (A) (A) (A) (A) (A)
                 (A) (A) (A) (A) (A) (A) (A) (A) (A) (A) (A) (A)
                 (A) (A) (A) (A) (A) (A) (A) (A) (A) (A) (A) (A)
                 (A) (A) (A) (A) (A) (A) (A) (A) (A) (A) (A) (A)
                 (A) (A) (A) (A) (A) (A) (A) (A) (A) (A) (A) (A)
                 (A) (A) (A) (A) (A) (A) (A) (A) (A) (A) (A) (A)
                 (A) (A) (A) (A) (A) (A) (A) (A) (A) (A) (A) (A)
                 (A) (A) (A) (A) (A) (A) (A) (A) (A) (A) (A) (A)
                 (A) (A) (A) (A) (A) (A) (A) (A) (A) (A) (A) (A)
                 (A)
 The electronic state is 2-A.
 Alpha  occ. eigenvalues --  -90.20168 -19.72891 -19.72850 -19.71982 -19.69568
 Alpha  occ. eigenvalues --  -10.61325  -8.53920  -6.46160  -6.46123  -6.46117
 Alpha  occ. eigenvalues --   -1.38746  -1.23439  -1.23233  -1.21325  -0.85625
 Alpha  occ. eigenvalues --   -0.74548  -0.68368  -0.66001  -0.65748  -0.58277
 Alpha  occ. eigenvalues --   -0.57121  -0.54680  -0.53857  -0.52649  -0.48840
 Alpha  occ. eigenvalues --   -0.47636  -0.47117  -0.44251  -0.41067
 Alpha virt. eigenvalues --    0.00700   0.02248   0.03649   0.03898   0.06231
 Alpha virt. eigenvalues --    0.06818   0.07087   0.08535   0.10978   0.12599
 Alpha virt. eigenvalues --    0.13563   0.13999   0.14998   0.19148   0.19291
 Alpha virt. eigenvalues --    0.19565   0.20277   0.22273   0.22572   0.24250
 Alpha virt. eigenvalues --    0.24825   0.25804   0.28081   0.28376   0.29191
 Alpha virt. eigenvalues --    0.29270   0.30043   0.30636   0.32134   0.33425
 Alpha virt. eigenvalues --    0.36894   0.38168   0.39499   0.39817   0.43816
 Alpha virt. eigenvalues --    0.46575   0.50484   0.56948   0.64527   0.65580
 Alpha virt. eigenvalues --    0.67840   0.69874   0.74823   0.82586   0.95457
 Alpha virt. eigenvalues --    0.96268   0.99863   1.03144   1.05462   1.08093
 Alpha virt. eigenvalues --    1.09776   1.11598   1.12432   1.13114   1.14445
 Alpha virt. eigenvalues --    1.14743   1.18304   1.21409   1.21513   1.29992
 Alpha virt. eigenvalues --    1.36042   1.43980   1.53833   1.54561   1.58921
 Alpha virt. eigenvalues --    1.59788   1.66187   1.70985   1.77298   1.82358
 Alpha virt. eigenvalues --    1.82937   1.87767   2.43622   2.44989   2.50443
 Alpha virt. eigenvalues --    2.72059   2.77384   2.78537   2.78838   2.79666
 Alpha virt. eigenvalues --    2.80800   2.82752   2.83561   2.88065   2.91077
 Alpha virt. eigenvalues --    2.98579   3.02430   3.09180   3.09383   3.15300
 Alpha virt. eigenvalues --    3.16644   3.23775   3.26135   3.29938   3.48896
 Alpha virt. eigenvalues --    3.58177   3.58597   3.94174   4.98335   4.99505
 Alpha virt. eigenvalues --    5.00810   5.03327   5.04161   5.06398   5.06615
 Alpha virt. eigenvalues --    5.08048   5.19786   5.32059   5.35933   5.48881
 Alpha virt. eigenvalues --    8.24840  17.41516  17.55481  17.58219  23.60922
 Alpha virt. eigenvalues --   49.87603  49.87957  49.91419  49.95782 189.47504
  Beta  occ. eigenvalues --  -90.20243 -19.72082 -19.72047 -19.71265 -19.69595
  Beta  occ. eigenvalues --  -10.61327  -8.53942  -6.46218  -6.46206  -6.46195
  Beta  occ. eigenvalues --   -1.37431  -1.21121  -1.20707  -1.20687  -0.85425
  Beta  occ. eigenvalues --   -0.73329  -0.67839  -0.63461  -0.63196  -0.57737
  Beta  occ. eigenvalues --   -0.56408  -0.52256  -0.48342  -0.48002  -0.46077
  Beta  occ. eigenvalues --   -0.45081  -0.43873  -0.40317
  Beta virt. eigenvalues --   -0.23599   0.00877   0.02374   0.03833   0.04077
  Beta virt. eigenvalues --    0.06429   0.06922   0.07198   0.08731   0.11120
  Beta virt. eigenvalues --    0.12895   0.13931   0.14695   0.15433   0.19229
  Beta virt. eigenvalues --    0.19539   0.20432   0.20941   0.22700   0.23571
  Beta virt. eigenvalues --    0.24574   0.25553   0.26389   0.28289   0.28604
  Beta virt. eigenvalues --    0.29534   0.29720   0.30057   0.30949   0.32162
  Beta virt. eigenvalues --    0.33435   0.37316   0.38412   0.39749   0.39891
  Beta virt. eigenvalues --    0.43923   0.46636   0.50984   0.56979   0.64653
  Beta virt. eigenvalues --    0.65718   0.68131   0.70061   0.74931   0.82329
  Beta virt. eigenvalues --    0.96112   0.96851   0.99776   1.03203   1.05739
  Beta virt. eigenvalues --    1.08460   1.10166   1.12096   1.13267   1.15611
  Beta virt. eigenvalues --    1.15633   1.16169   1.19669   1.21999   1.22468
  Beta virt. eigenvalues --    1.30199   1.36202   1.44069   1.55213   1.56282
  Beta virt. eigenvalues --    1.58898   1.60001   1.66880   1.71227   1.77503
  Beta virt. eigenvalues --    1.81157   1.82479   1.86522   2.43640   2.44984
  Beta virt. eigenvalues --    2.50505   2.75154   2.78624   2.80896   2.81705
  Beta virt. eigenvalues --    2.81817   2.83309   2.85220   2.85259   2.89352
  Beta virt. eigenvalues --    2.91279   2.98785   3.02990   3.09388   3.09813
  Beta virt. eigenvalues --    3.17516   3.18449   3.23819   3.26556   3.30244
  Beta virt. eigenvalues --    3.49536   3.59348   3.59642   3.94192   5.01160
  Beta virt. eigenvalues --    5.01231   5.03425   5.05392   5.06592   5.07585
  Beta virt. eigenvalues --    5.08025   5.08379   5.20201   5.33038   5.36775
  Beta virt. eigenvalues --    5.48850   8.24869  17.41284  17.55072  17.57794
  Beta virt. eigenvalues --   23.60919  49.86769  49.87156  49.90908  49.95508
  Beta virt. eigenvalues --  189.47402
          Condensed to atoms (all electrons):
              1          2          3          4          5          6
     1  S   15.478713   0.093017   0.093238   0.073741  -0.016285  -0.127422
     2  O    0.093017   8.403964  -0.092712  -0.276625  -0.031047   0.027342
     3  O    0.093238  -0.092712   8.401813  -0.275510  -0.030687   0.027327
     4  O    0.073741  -0.276625  -0.275510   8.538201  -0.007942   0.010411
     5  O   -0.016285  -0.031047  -0.030687  -0.007942   8.486971  -0.075805
     6  C   -0.127422   0.027342   0.027327   0.010411  -0.075805   5.717981
     7  H   -0.018787   0.000792   0.012736  -0.002415  -0.043678   0.392848
     8  H    0.009102  -0.002525  -0.002518   0.001599  -0.063210   0.403296
     9  H   -0.018796   0.012757   0.000788  -0.002416  -0.043669   0.392838
              7          8          9
     1  S   -0.018787   0.009102  -0.018796
     2  O    0.000792  -0.002525   0.012757
     3  O    0.012736  -0.002518   0.000788
     4  O   -0.002415   0.001599  -0.002416
     5  O   -0.043678  -0.063210  -0.043669
     6  C    0.392848   0.403296   0.392838
     7  H    0.439727  -0.023225  -0.039227
     8  H   -0.023225   0.424840  -0.023226
     9  H   -0.039227  -0.023226   0.439589
 Mulliken atomic charges:
              1
     1  S    0.433480
     2  O   -0.134962
     3  O   -0.134475
     4  O   -0.059043
     5  O   -0.174647
     6  C   -0.768816
     7  H    0.281231
     8  H    0.275868
     9  H    0.281363
 Sum of Mulliken atomic charges =   0.00000
 Mulliken charges with hydrogens summed into heavy atoms:
              1
     1  S    0.433480
     2  O   -0.134962
     3  O   -0.134475
     4  O   -0.059043
     5  O   -0.174647
     6  C    0.069646
 Sum of Mulliken charges with hydrogens summed into heavy atoms =   0.00000
          Atomic-Atomic Spin Densities.
              1          2          3          4          5          6
     1  S   -0.804771   0.104195   0.103502   0.159460   0.111622  -0.006336
     2  O    0.104195   0.268232   0.019056   0.079973  -0.017420   0.003551
     3  O    0.103502   0.019056   0.272804   0.079231  -0.017454   0.003539
     4  O    0.159460   0.079973   0.079231   0.109400  -0.015931  -0.005000
     5  O    0.111622  -0.017420  -0.017454  -0.015931  -0.067194   0.011870
     6  C   -0.006336   0.003551   0.003539  -0.005000   0.011870  -0.006629
     7  H    0.000589  -0.000458  -0.000058   0.000179  -0.000267   0.000274
     8  H   -0.000476   0.000243   0.000241  -0.000242   0.000553  -0.000350
     9  H    0.000597  -0.000060  -0.000457   0.000179  -0.000268   0.000267
              7          8          9
     1  S    0.000589  -0.000476   0.000597
     2  O   -0.000458   0.000243  -0.000060
     3  O   -0.000058   0.000241  -0.000457
     4  O    0.000179  -0.000242   0.000179
     5  O   -0.000267   0.000553  -0.000268
     6  C    0.000274  -0.000350   0.000267
     7  H   -0.000298   0.000111   0.000093
     8  H    0.000111  -0.000570   0.000112
     9  H    0.000093   0.000112  -0.000298
 Mulliken atomic spin densities:
              1
     1  S   -0.331617
     2  O    0.457313
     3  O    0.460404
     4  O    0.407248
     5  O    0.005511
     6  C    0.001187
     7  H    0.000166
     8  H   -0.000377
     9  H    0.000165
 Sum of Mulliken atomic spin densities =   1.00000
 Electronic spatial extent (au):  <R**2>=            539.1036
 Charge=              0.0000 electrons
 Dipole moment (field-independent basis, Debye):
    X=              2.4544    Y=             -0.6638    Z=              0.0006  Tot=              2.5425
 Quadrupole moment (field-independent basis, Debye-Ang):
   XX=            -36.7430   YY=            -44.4485   ZZ=            -43.4524
   XY=              0.2439   XZ=             -0.0006   YZ=              0.0104
 Traceless Quadrupole moment (field-independent basis, Debye-Ang):
   XX=              4.8050   YY=             -2.9006   ZZ=             -1.9044
   XY=              0.2439   XZ=             -0.0006   YZ=              0.0104
 Octapole moment (field-independent basis, Debye-Ang**2):
  XXX=             11.4803  YYY=             -1.3292  ZZZ=             -0.0575  XYY=              0.6433
  XXY=             -1.8244  XXZ=              0.0113  XZZ=             -0.3570  YZZ=              3.4764
  YYZ=              0.0392  XYZ=             -0.0063
 Hexadecapole moment (field-independent basis, Debye-Ang**3):
 XXXX=           -339.1647 YYYY=           -147.2827 ZZZZ=           -143.8800 XXXY=             11.8029
 XXXZ=             -0.0594 YYYX=              0.5716 YYYZ=             -0.0075 ZZZX=              0.0672
 ZZZY=              0.0292 XXYY=            -85.8797 XXZZ=            -84.4960 YYZZ=            -49.8810
 XXYZ=              0.0064 YYXZ=             -0.0446 ZZXY=             -3.9241
 N-N= 3.636175223676D+02 E-N=-3.700604963662D+03  KE= 1.104825794993D+03
                          Isotropic Fermi Contact Couplings
        Atom                 a.u.       MegaHertz       Gauss      10(-4) cm-1
     1  S(33)             -0.08538     -29.32615     -10.46430      -9.78215
     2  O(17)              0.05542     -33.59272     -11.98672     -11.20533
     3  O(17)              0.05572     -33.77900     -12.05319     -11.26746
     4  O(17)              0.05103     -30.93448     -11.03819     -10.31863
     5  O(17)             -0.01190       7.21432       2.57425       2.40644
     6  C(13)             -0.00215      -2.42090      -0.86384      -0.80753
     7  H(1)               0.00021       0.94894       0.33861       0.31653
     8  H(1)              -0.00021      -0.92900      -0.33149      -0.30988
     9  H(1)               0.00021       0.94036       0.33555       0.31367
 --------------------------------------------------------
       Center         ----  Spin Dipole Couplings  ----
                      3XX-RR        3YY-RR        3ZZ-RR
 --------------------------------------------------------
     1   Atom        0.038512     -0.012367     -0.026146
     2   Atom       -0.469116      0.664315     -0.195200
     3   Atom       -0.471115      0.648545     -0.177430
     4   Atom       -0.766073     -0.783264      1.549337
     5   Atom        0.007579     -0.004743     -0.002835
     6   Atom        0.003038     -0.003346      0.000308
     7   Atom        0.006936     -0.004141     -0.002795
     8   Atom        0.002492     -0.001114     -0.001377
     9   Atom        0.006901     -0.004129     -0.002772
 --------------------------------------------------------
                        XY            XZ            YZ
 --------------------------------------------------------
     1   Atom        0.023820     -0.000286     -0.000147
     2   Atom       -0.725262     -0.508720      1.078077
     3   Atom       -0.727068      0.519662     -1.092548
     4   Atom        0.048455     -0.000622      0.014809
     5   Atom       -0.007148      0.000014     -0.000061
     6   Atom        0.003186      0.000008      0.000031
     7   Atom        0.001092     -0.000753     -0.000053
     8   Atom        0.001739     -0.000003      0.000001
     9   Atom        0.001094      0.000766      0.000072
 --------------------------------------------------------


 ---------------------------------------------------------------------------------
              Anisotropic Spin Dipole Couplings in Principal Axis System
 ---------------------------------------------------------------------------------

       Atom             a.u.   MegaHertz   Gauss  10(-4) cm-1        Axes

              Baa    -0.0261    -1.072    -0.383    -0.358  0.0014  0.0083  1.0000
     1 S(33)  Bbb    -0.0218    -0.893    -0.319    -0.298 -0.3675  0.9300 -0.0072
              Bcc     0.0479     1.965     0.701     0.655  0.9300  0.3674 -0.0043
 
              Baa    -0.9277    67.126    23.952    22.391  0.1161 -0.5201  0.8462
     2 O(17)  Bbb    -0.8212    59.423    21.203    19.821  0.9214  0.3745  0.1038
              Bcc     1.7489  -126.548   -45.156   -42.212 -0.3709  0.7676  0.5227
 
              Baa    -0.9341    67.590    24.118    22.546 -0.1158  0.5277  0.8415
     3 O(17)  Bbb    -0.8272    59.852    21.357    19.965  0.9211  0.3740 -0.1078
              Bcc     1.7612  -127.443   -45.475   -42.510 -0.3716  0.7626 -0.5294
 
              Baa    -0.8239    59.620    21.274    19.887 -0.6420  0.7667 -0.0050
     4 O(17)  Bbb    -0.7255    52.496    18.732    17.511  0.7667  0.6420 -0.0040
              Bcc     1.5494  -112.116   -40.006   -37.398 -0.0001  0.0063  1.0000
 
              Baa    -0.0080     0.580     0.207     0.194  0.4166  0.9091  0.0097
     5 O(17)  Bbb    -0.0028     0.205     0.073     0.068 -0.0065 -0.0076  0.9999
              Bcc     0.0109    -0.785    -0.280    -0.262  0.9091 -0.4166  0.0028
 
              Baa    -0.0047    -0.626    -0.223    -0.209 -0.3822  0.9241 -0.0051
     6 C(13)  Bbb     0.0003     0.041     0.015     0.014 -0.0063  0.0029  1.0000
              Bcc     0.0044     0.585     0.209     0.195  0.9241  0.3822  0.0047
 
              Baa    -0.0042    -2.266    -0.809    -0.756 -0.0981  0.9951 -0.0146
     7 H(1)   Bbb    -0.0029    -1.522    -0.543    -0.508  0.0743  0.0219  0.9970
              Bcc     0.0071     3.788     1.352     1.264  0.9924  0.0967 -0.0761
 
              Baa    -0.0018    -0.969    -0.346    -0.323 -0.3743  0.9273 -0.0052
     8 H(1)   Bbb    -0.0014    -0.735    -0.262    -0.245 -0.0014  0.0051  1.0000
              Bcc     0.0032     1.704     0.608     0.568  0.9273  0.3743 -0.0006
 
              Baa    -0.0042    -2.260    -0.807    -0.754 -0.0979  0.9952  0.0025
     9 H(1)   Bbb    -0.0028    -1.511    -0.539    -0.504 -0.0773 -0.0101  0.9970
              Bcc     0.0071     3.771     1.346     1.258  0.9922  0.0974  0.0780
 

 ---------------------------------------------------------------------------------

 Calling FoFJK, ICntrl=      2127 FMM=F ISym2X=0 I1Cent= 0 IOpClX= 1 NMat=1 NMatS=1 NMatT=0.
 ***** Axes restored to original set *****
 -------------------------------------------------------------------
 Center     Atomic                   Forces (Hartrees/Bohr)
 Number     Number              X              Y              Z
 -------------------------------------------------------------------
      1       16           0.031937688    0.032613898    0.055524104
      2        8          -0.006190229   -0.023918080   -0.009963092
      3        8           0.001238615   -0.003326806   -0.025949681
      4        8          -0.018439300    0.000397834   -0.008301079
      5        8          -0.028604819    0.001142070   -0.012085278
      6        6           0.017436465   -0.004112848    0.002775932
      7        1           0.003215155    0.002388672   -0.005253229
      8        1          -0.000559313    0.001417558    0.001504123
      9        1          -0.000034263   -0.006602298    0.001748200
 -------------------------------------------------------------------
 Cartesian Forces:  Max     0.055524104 RMS     0.017596763

 GradGradGradGradGradGradGradGradGradGradGradGradGradGradGradGradGradGrad
 Berny optimization.
 Internal  Forces:  Max     0.026204193 RMS     0.013563239
 Search for a local minimum.
 Step number   1 out of a maximum of   37
 All quantities printed in internal units (Hartrees-Bohrs-Radians)
 Mixed Optimization -- RFO/linear search
 Second derivative matrix not updated -- first step.
     Eigenvalues ---    0.01714   0.02182   0.10246   0.10698   0.16000
     Eigenvalues ---    0.16000   0.16000   0.17605   0.17846   0.25000
     Eigenvalues ---    0.25000   0.25000   0.25000   0.35418   0.35574
     Eigenvalues ---    0.35613   0.45332   0.45900   0.97532   0.97893
     Eigenvalues ---    1.017761000.000001000.000001000.000001000.00000
     Eigenvalues --- 1000.000001000.00000
 RFO step:  Lambda=-1.43640378D-02 EMin= 1.71397900D-02
 Linear search not attempted -- first point.
 Iteration  1 RMS(Cart)=  0.06656046 RMS(Int)=  0.00444388
 Iteration  2 RMS(Cart)=  0.00373376 RMS(Int)=  0.00272868
 Iteration  3 RMS(Cart)=  0.00001174 RMS(Int)=  0.00272867
 Iteration  4 RMS(Cart)=  0.00000008 RMS(Int)=  0.00272867
 Variable       Old X    -DE/DX   Delta X   Delta X   Delta X     New X
                                 (Linear)    (Quad)   (Total)
    R1        2.73194   0.02182   0.00000   0.02196   0.02196   2.75391
    R2        2.73344   0.02130   0.00000   0.02152   0.02152   2.75496
    R3        2.71636   0.01523   0.00000   0.01476   0.01476   2.73111
    R4        3.08592  -0.01533   0.00000  -0.03279  -0.03279   3.05314
    R5        2.64245   0.02126   0.00000   0.04491   0.04491   2.68736
    R6        2.04753   0.00656   0.00000   0.01772   0.01772   2.06525
    R7        2.05002   0.00159   0.00000   0.00433   0.00433   2.05435
    R8        2.04691   0.00678   0.00000   0.01831   0.01831   2.06522
    A1        1.98432  -0.02302   0.00000  -0.09030  -0.09592   1.88840
    A2        2.01210  -0.01672   0.00000  -0.06142  -0.06745   1.94465
    A3        1.82107   0.02620   0.00000   0.09850   0.09292   1.91399
    A4        2.01130  -0.01688   0.00000  -0.06233  -0.06831   1.94298
    A5        1.82091   0.02609   0.00000   0.09795   0.09240   1.91331
    A6        1.77657   0.02341   0.00000   0.08980   0.08388   1.86045
    A7        2.02611   0.00195   0.00000   0.00737   0.00737   2.03347
    A8        1.93731   0.00015   0.00000   0.00170   0.00167   1.93897
    A9        1.86328  -0.00244   0.00000  -0.01566  -0.01569   1.84759
   A10        1.93716   0.00019   0.00000   0.00195   0.00192   1.93909
   A11        1.90861   0.00041   0.00000   0.00069   0.00066   1.90928
   A12        1.90815   0.00121   0.00000   0.00992   0.00989   1.91804
   A13        1.90861   0.00042   0.00000   0.00081   0.00078   1.90939
    D1        1.04315  -0.00148   0.00000  -0.00789  -0.00832   1.03483
    D2       -1.04362   0.00139   0.00000   0.00719   0.00758  -1.03604
    D3       -3.14136   0.00008   0.00000   0.00031   0.00035  -3.14101
    D4        1.06305   0.00089   0.00000   0.00764   0.00764   1.07069
    D5       -3.14144  -0.00001   0.00000  -0.00008  -0.00008  -3.14152
    D6       -1.06284  -0.00088   0.00000  -0.00751  -0.00751  -1.07035
         Item               Value     Threshold  Converged?
 Maximum Force            0.026204     0.000450     NO 
 RMS     Force            0.013563     0.000300     NO 
 Maximum Displacement     0.152683     0.001800     NO 
 RMS     Displacement     0.067820     0.001200     NO 
 Predicted change in Energy=-7.503072D-03
 GradGradGradGradGradGradGradGradGradGradGradGradGradGradGradGradGradGrad

                          Input orientation:                          
 ---------------------------------------------------------------------
 Center     Atomic      Atomic             Coordinates (Angstroms)
 Number     Number       Type             X           Y           Z
 ---------------------------------------------------------------------
      1         16           0       -2.347803    0.727502    0.120823
      2          8           0       -2.405736   -0.723308    0.245462
      3          8           0       -1.743796    1.050127   -1.166209
      4          8           0       -3.659220    1.321097    0.249500
      5          8           0       -1.445108    1.339933    1.312626
      6          6           0       -0.097236    0.891937    1.382410
      7          1           0        0.452417    1.155763    0.475397
      8          1           0        0.342863    1.405579    2.233470
      9          1           0       -0.049381   -0.187630    1.545522
 ---------------------------------------------------------------------
                    Distance matrix (angstroms):
                    1          2          3          4          5
     1  S    0.000000
     2  O    1.457305   0.000000
     3  O    1.457863   2.361366   0.000000
     4  O    1.445243   2.398089   2.397187   0.000000
     5  O    1.615650   2.513684   2.513529   2.456192   0.000000
     6  C    2.585285   3.038230   3.038363   3.762366   1.422087
     7  H    2.854884   3.428238   2.743972   4.121156   2.082180
     8  H    3.487514   4.004889   4.004787   4.467655   2.012239
     9  H    2.854817   2.743997   3.428786   4.121513   2.082245
                    6          7          8          9
     6  C    0.000000
     7  H    1.092884   0.000000
     8  H    1.087115   1.779110   0.000000
     9  H    1.092868   1.789322   1.779170   0.000000
 Stoichiometry    CH3O4S(2)
 Framework group  C1[X(CH3O4S)]
 Deg. of freedom    21
 Full point group                 C1      NOp   1
 Largest Abelian subgroup         C1      NOp   1
 Largest concise Abelian subgroup C1      NOp   1
                         Standard orientation:                         
 ---------------------------------------------------------------------
 Center     Atomic      Atomic             Coordinates (Angstroms)
 Number     Number       Type             X           Y           Z
 ---------------------------------------------------------------------
      1         16           0        0.452944    0.002243   -0.000467
      2          8           0        0.545951   -0.852320   -1.177247
      3          8           0        0.546403   -0.842408    1.184098
      4          8           0        1.480461    1.018572   -0.003670
      5          8           0       -0.963975    0.778552   -0.002945
      6          6           0       -2.132107   -0.032490    0.000347
      7          1           0       -2.176121   -0.655152    0.897425
      8          1           0       -2.972543    0.657061   -0.002042
      9          1           0       -2.176525   -0.662023   -0.891884
 ---------------------------------------------------------------------
 Rotational constants (GHZ):      5.2221662      2.7351843      2.6721202
 Standard basis: 6-311+G(d) (5D, 7F)
 There are   149 symmetry adapted basis functions of A   symmetry.
 Integral buffers will be    131072 words long.
 Raffenetti 2 integral format.
 Two-electron integral symmetry is turned on.
   149 basis functions,   245 primitive gaussians,   155 cartesian basis functions
    29 alpha electrons       28 beta electrons
       nuclear repulsion energy       360.8664118593 Hartrees.
 NAtoms=    9 NActive=    9 NUniq=    9 SFac= 7.50D-01 NAtFMM=   80 NAOKFM=F Big=F
 One-electron integrals computed using PRISM.
 NBasis=   149 RedAO= T  NBF=   149
 NBsUse=   149 1.00D-06 NBFU=   149
 Initial guess read from the read-write file.
 B after Tr=     0.000000    0.000000    0.000000
         Rot=    1.000000    0.000000    0.000000    0.000000 Ang=   0.00 deg.
 Initial guess orbital symmetries:
 Alpha Orbitals:
       Occupied  (A) (A) (A) (A) (A) (A) (A) (A) (A) (A) (A) (A)
                 (A) (A) (A) (A) (A) (A) (A) (A) (A) (A) (A) (A)
                 (A) (A) (A) (A) (A)
       Virtual   (A) (A) (A) (A) (A) (A) (A) (A) (A) (A) (A) (A)
                 (A) (A) (A) (A) (A) (A) (A) (A) (A) (A) (A) (A)
                 (A) (A) (A) (A) (A) (A) (A) (A) (A) (A) (A) (A)
                 (A) (A) (A) (A) (A) (A) (A) (A) (A) (A) (A) (A)
                 (A) (A) (A) (A) (A) (A) (A) (A) (A) (A) (A) (A)
                 (A) (A) (A) (A) (A) (A) (A) (A) (A) (A) (A) (A)
                 (A) (A) (A) (A) (A) (A) (A) (A) (A) (A) (A) (A)
                 (A) (A) (A) (A) (A) (A) (A) (A) (A) (A) (A) (A)
                 (A) (A) (A) (A) (A) (A) (A) (A) (A) (A) (A) (A)
                 (A) (A) (A) (A) (A) (A) (A) (A) (A) (A) (A) (A)
 Beta  Orbitals:
       Occupied  (A) (A) (A) (A) (A) (A) (A) (A) (A) (A) (A) (A)
                 (A) (A) (A) (A) (A) (A) (A) (A) (A) (A) (A) (A)
                 (A) (A) (A) (A)
       Virtual   (A) (A) (A) (A) (A) (A) (A) (A) (A) (A) (A) (A)
                 (A) (A) (A) (A) (A) (A) (A) (A) (A) (A) (A) (A)
                 (A) (A) (A) (A) (A) (A) (A) (A) (A) (A) (A) (A)
                 (A) (A) (A) (A) (A) (A) (A) (A) (A) (A) (A) (A)
                 (A) (A) (A) (A) (A) (A) (A) (A) (A) (A) (A) (A)
                 (A) (A) (A) (A) (A) (A) (A) (A) (A) (A) (A) (A)
                 (A) (A) (A) (A) (A) (A) (A) (A) (A) (A) (A) (A)
                 (A) (A) (A) (A) (A) (A) (A) (A) (A) (A) (A) (A)
                 (A) (A) (A) (A) (A) (A) (A) (A) (A) (A) (A) (A)
                 (A) (A) (A) (A) (A) (A) (A) (A) (A) (A) (A) (A)
                 (A)
 Initial guess <Sx>= 0.0000 <Sy>= 0.0000 <Sz>= 0.5000 <S**2>= 0.8707 S= 0.5586
 Harris functional with IExCor= 1009 diagonalized for initial guess.
 ExpMin= 4.05D-02 ExpMax= 9.34D+04 ExpMxC= 3.17D+03 IAcc=2 IRadAn=         0 AccDes= 0.00D+00
 HarFok:  IExCor= 1009 AccDes= 0.00D+00 IRadAn=         0 IDoV= 1
 ScaDFX=  1.000000  1.000000  1.000000  1.000000
 FoFCou: FMM=F IPFlag=           0 FMFlag=      100000 FMFlg1=           0
         NFxFlg=           0 DoJE=T BraDBF=F KetDBF=T FulRan=T
         Omega=  0.000000  0.000000  1.000000  0.000000  0.000000 ICntrl=     500 IOpCl=  0
         NMat0=    1 NMatS0=    1 NMatT0=    0 NMatD0=    1 NMtDS0=    0 NMtDT0=    0
         I1Cent=           4 NGrid=           0.
 Petite list used in FoFCou.
 Requested convergence on RMS density matrix=1.00D-08 within 128 cycles.
 Requested convergence on MAX density matrix=1.00D-06.
 Requested convergence on             energy=1.00D-06.
 No special actions if energy rises.
 Restarting incremental Fock formation.
 SCF Done:  E(UM062X) =  -738.788834751     A.U. after   25 cycles
             Convg  =    0.1844D-08             -V/T =  2.0017
 <Sx>= 0.0000 <Sy>= 0.0000 <Sz>= 0.5000 <S**2>= 0.7704 S= 0.5101
 <L.S>= 0.000000000000E+00
 Annihilation of the first spin contaminant:
 S**2 before annihilation     0.7704,   after     0.7503
 Calling FoFJK, ICntrl=      2127 FMM=F ISym2X=0 I1Cent= 0 IOpClX= 1 NMat=1 NMatS=1 NMatT=0.
 ***** Axes restored to original set *****
 -------------------------------------------------------------------
 Center     Atomic                   Forces (Hartrees/Bohr)
 Number     Number              X              Y              Z
 -------------------------------------------------------------------
      1       16          -0.007685779    0.010001987    0.008969123
      2        8           0.007116069   -0.012800313    0.006539477
      3        8           0.013518718    0.004513155   -0.007259704
      4        8          -0.000799358    0.006953745    0.008301211
      5        8          -0.020180843   -0.005630703   -0.016486478
      6        6           0.013990609   -0.005124652    0.000088434
      7        1          -0.002162692    0.000467799    0.000151929
      8        1          -0.001816209    0.000630858   -0.000051792
      9        1          -0.001980515    0.000988124   -0.000252200
 -------------------------------------------------------------------
 Cartesian Forces:  Max     0.020180843 RMS     0.008203210

 GradGradGradGradGradGradGradGradGradGradGradGradGradGradGradGradGradGrad
 Berny optimization.
 Using GEDIIS/GDIIS optimizer.
 Internal  Forces:  Max     0.022256612 RMS     0.008574317
 Search for a local minimum.
 Step number   2 out of a maximum of   37
 All quantities printed in internal units (Hartrees-Bohrs-Radians)
 Mixed Optimization -- RFO/linear search
 Update second derivatives using D2CorX and points    1    2
 DE= -4.40D-03 DEPred=-7.50D-03 R= 5.86D-01
 SS=  1.41D+00  RLast= 2.20D-01 DXNew= 5.0454D-01 6.5860D-01
 Trust test= 5.86D-01 RLast= 2.20D-01 DXMaxT set to 5.05D-01
 Use linear search instead of GDIIS.
     Eigenvalues ---    0.01714   0.02182   0.10211   0.10793   0.15606
     Eigenvalues ---    0.16000   0.16005   0.16147   0.16592   0.24807
     Eigenvalues ---    0.25000   0.25000   0.33598   0.35327   0.35436
     Eigenvalues ---    0.35595   0.44837   0.53365   0.92337   0.97714
     Eigenvalues ---    1.015041000.000001000.000001000.000001000.00000
     Eigenvalues --- 1000.000001000.00000
 RFO step:  Lambda=-2.40925224D-03 EMin= 1.71397900D-02
 Quartic linear search produced a step of -0.27051.
 Iteration  1 RMS(Cart)=  0.03098540 RMS(Int)=  0.00065198
 Iteration  2 RMS(Cart)=  0.00054795 RMS(Int)=  0.00044129
 Iteration  3 RMS(Cart)=  0.00000048 RMS(Int)=  0.00044129
 Variable       Old X    -DE/DX   Delta X   Delta X   Delta X     New X
                                 (Linear)    (Quad)   (Total)
    R1        2.75391   0.01303  -0.00594   0.01929   0.01335   2.76726
    R2        2.75496   0.01302  -0.00582   0.01913   0.01331   2.76827
    R3        2.73111   0.00431  -0.00399   0.00955   0.00556   2.73667
    R4        3.05314  -0.02226   0.00887  -0.04960  -0.04073   3.01241
    R5        2.68736   0.00854  -0.01215   0.03273   0.02058   2.70794
    R6        2.06525  -0.00111  -0.00479   0.00526   0.00046   2.06572
    R7        2.05435  -0.00047  -0.00117   0.00087  -0.00030   2.05405
    R8        2.06522  -0.00111  -0.00495   0.00551   0.00056   2.06578
    A1        1.88840   0.00854   0.02595  -0.02254   0.00406   1.89245
    A2        1.94465   0.01474   0.01825   0.01530   0.03463   1.97928
    A3        1.91399  -0.01328  -0.02514  -0.00318  -0.02754   1.88644
    A4        1.94298   0.01465   0.01848   0.01467   0.03423   1.97721
    A5        1.91331  -0.01320  -0.02500  -0.00318  -0.02741   1.88590
    A6        1.86045  -0.01264  -0.02269  -0.00089  -0.02257   1.83788
    A7        2.03347  -0.00154  -0.00199  -0.00138  -0.00337   2.03010
    A8        1.93897  -0.00199  -0.00045  -0.00842  -0.00891   1.93006
    A9        1.84759  -0.00193   0.00424  -0.01453  -0.01033   1.83726
   A10        1.93909  -0.00201  -0.00052  -0.00846  -0.00901   1.93007
   A11        1.90928   0.00196  -0.00018   0.00936   0.00914   1.91842
   A12        1.91804   0.00202  -0.00268   0.01234   0.00963   1.92767
   A13        1.90939   0.00195  -0.00021   0.00934   0.00909   1.91848
    D1        1.03483  -0.00276   0.00225  -0.01583  -0.01320   1.02163
    D2       -1.03604   0.00275  -0.00205   0.01552   0.01311  -1.02294
    D3       -3.14101   0.00001  -0.00009   0.00022   0.00012  -3.14089
    D4        1.07069  -0.00012  -0.00207   0.00193  -0.00014   1.07055
    D5       -3.14152   0.00001   0.00002   0.00000   0.00002  -3.14150
    D6       -1.07035   0.00011   0.00203  -0.00199   0.00005  -1.07029
         Item               Value     Threshold  Converged?
 Maximum Force            0.022257     0.000450     NO 
 RMS     Force            0.008574     0.000300     NO 
 Maximum Displacement     0.080893     0.001800     NO 
 RMS     Displacement     0.031306     0.001200     NO 
 Predicted change in Energy=-1.805873D-03
 GradGradGradGradGradGradGradGradGradGradGradGradGradGradGradGradGradGrad

                          Input orientation:                          
 ---------------------------------------------------------------------
 Center     Atomic      Atomic             Coordinates (Angstroms)
 Number     Number       Type             X           Y           Z
 ---------------------------------------------------------------------
      1         16           0       -2.350110    0.728674    0.121262
      2          8           0       -2.366826   -0.727998    0.270289
      3          8           0       -1.700990    1.056692   -1.150347
      4          8           0       -3.655593    1.337300    0.271367
      5          8           0       -1.464602    1.336498    1.299215
      6          6           0       -0.106231    0.885732    1.370375
      7          1           0        0.435853    1.153755    0.459748
      8          1           0        0.323284    1.404819    2.223336
      9          1           0       -0.067785   -0.194471    1.533754
 ---------------------------------------------------------------------
                    Distance matrix (angstroms):
                    1          2          3          4          5
     1  S    0.000000
     2  O    1.464371   0.000000
     3  O    1.464903   2.376271   0.000000
     4  O    1.448186   2.434415   2.433205   0.000000
     5  O    1.594098   2.476861   2.476796   2.420106   0.000000
     6  C    2.572925   2.987407   2.987728   3.742954   1.432978
     7  H    2.838461   3.381110   2.677298   4.099891   2.085624
     8  H    3.467409   3.949683   3.949761   4.432404   2.013753
     9  H    2.838369   2.677048   3.381888   4.100281   2.085658
                    6          7          8          9
     6  C    0.000000
     7  H    1.093130   0.000000
     8  H    1.086958   1.784922   0.000000
     9  H    1.093165   1.795788   1.784989   0.000000
 Stoichiometry    CH3O4S(2)
 Framework group  C1[X(CH3O4S)]
 Deg. of freedom    21
 Full point group                 C1      NOp   1
 Largest Abelian subgroup         C1      NOp   1
 Largest concise Abelian subgroup C1      NOp   1
                         Standard orientation:                         
 ---------------------------------------------------------------------
 Center     Atomic      Atomic             Coordinates (Angstroms)
 Number     Number       Type             X           Y           Z
 ---------------------------------------------------------------------
      1         16           0        0.463029   -0.006567   -0.000498
      2          8           0        0.491288   -0.868266   -1.184161
      3          8           0        0.492208   -0.856770    1.192082
      4          8           0        1.494461    1.009984   -0.004247
      5          8           0       -0.915917    0.793211   -0.003438
      6          6           0       -2.109885    0.000840    0.000387
      7          1           0       -2.158379   -0.616788    0.901007
      8          1           0       -2.928200    0.716264   -0.002484
      9          1           0       -2.158903   -0.624709   -0.894764
 ---------------------------------------------------------------------
 Rotational constants (GHZ):      5.1437405      2.7842971      2.7142620
 Standard basis: 6-311+G(d) (5D, 7F)
 There are   149 symmetry adapted basis functions of A   symmetry.
 Integral buffers will be    131072 words long.
 Raffenetti 2 integral format.
 Two-electron integral symmetry is turned on.
   149 basis functions,   245 primitive gaussians,   155 cartesian basis functions
    29 alpha electrons       28 beta electrons
       nuclear repulsion energy       361.4590291790 Hartrees.
 NAtoms=    9 NActive=    9 NUniq=    9 SFac= 7.50D-01 NAtFMM=   80 NAOKFM=F Big=F
 One-electron integrals computed using PRISM.
 NBasis=   149 RedAO= T  NBF=   149
 NBsUse=   149 1.00D-06 NBFU=   149
 Initial guess read from the read-write file.
 B after Tr=     0.000000    0.000000    0.000000
         Rot=    1.000000    0.000000    0.000000    0.000000 Ang=   0.00 deg.
 Initial guess orbital symmetries:
 Alpha Orbitals:
       Occupied  (A) (A) (A) (A) (A) (A) (A) (A) (A) (A) (A) (A)
                 (A) (A) (A) (A) (A) (A) (A) (A) (A) (A) (A) (A)
                 (A) (A) (A) (A) (A)
       Virtual   (A) (A) (A) (A) (A) (A) (A) (A) (A) (A) (A) (A)
                 (A) (A) (A) (A) (A) (A) (A) (A) (A) (A) (A) (A)
                 (A) (A) (A) (A) (A) (A) (A) (A) (A) (A) (A) (A)
                 (A) (A) (A) (A) (A) (A) (A) (A) (A) (A) (A) (A)
                 (A) (A) (A) (A) (A) (A) (A) (A) (A) (A) (A) (A)
                 (A) (A) (A) (A) (A) (A) (A) (A) (A) (A) (A) (A)
                 (A) (A) (A) (A) (A) (A) (A) (A) (A) (A) (A) (A)
                 (A) (A) (A) (A) (A) (A) (A) (A) (A) (A) (A) (A)
                 (A) (A) (A) (A) (A) (A) (A) (A) (A) (A) (A) (A)
                 (A) (A) (A) (A) (A) (A) (A) (A) (A) (A) (A) (A)
 Beta  Orbitals:
       Occupied  (A) (A) (A) (A) (A) (A) (A) (A) (A) (A) (A) (A)
                 (A) (A) (A) (A) (A) (A) (A) (A) (A) (A) (A) (A)
                 (A) (A) (A) (A)
       Virtual   (A) (A) (A) (A) (A) (A) (A) (A) (A) (A) (A) (A)
                 (A) (A) (A) (A) (A) (A) (A) (A) (A) (A) (A) (A)
                 (A) (A) (A) (A) (A) (A) (A) (A) (A) (A) (A) (A)
                 (A) (A) (A) (A) (A) (A) (A) (A) (A) (A) (A) (A)
                 (A) (A) (A) (A) (A) (A) (A) (A) (A) (A) (A) (A)
                 (A) (A) (A) (A) (A) (A) (A) (A) (A) (A) (A) (A)
                 (A) (A) (A) (A) (A) (A) (A) (A) (A) (A) (A) (A)
                 (A) (A) (A) (A) (A) (A) (A) (A) (A) (A) (A) (A)
                 (A) (A) (A) (A) (A) (A) (A) (A) (A) (A) (A) (A)
                 (A) (A) (A) (A) (A) (A) (A) (A) (A) (A) (A) (A)
                 (A)
 Initial guess <Sx>= 0.0000 <Sy>= 0.0000 <Sz>= 0.5000 <S**2>= 0.7703 S= 0.5101
 Harris functional with IExCor= 1009 diagonalized for initial guess.
 ExpMin= 4.05D-02 ExpMax= 9.34D+04 ExpMxC= 3.17D+03 IAcc=2 IRadAn=         0 AccDes= 0.00D+00
 HarFok:  IExCor= 1009 AccDes= 0.00D+00 IRadAn=         0 IDoV= 1
 ScaDFX=  1.000000  1.000000  1.000000  1.000000
 FoFCou: FMM=F IPFlag=           0 FMFlag=      100000 FMFlg1=           0
         NFxFlg=           0 DoJE=T BraDBF=F KetDBF=T FulRan=T
         Omega=  0.000000  0.000000  1.000000  0.000000  0.000000 ICntrl=     500 IOpCl=  0
         NMat0=    1 NMatS0=    1 NMatT0=    0 NMatD0=    1 NMtDS0=    0 NMtDT0=    0
         I1Cent=           4 NGrid=           0.
 Petite list used in FoFCou.
 Requested convergence on RMS density matrix=1.00D-08 within 128 cycles.
 Requested convergence on MAX density matrix=1.00D-06.
 Requested convergence on             energy=1.00D-06.
 No special actions if energy rises.
 SCF Done:  E(UM062X) =  -738.791189466     A.U. after   18 cycles
             Convg  =    0.9835D-08             -V/T =  2.0018
 <Sx>= 0.0000 <Sy>= 0.0000 <Sz>= 0.5000 <S**2>= 0.7700 S= 0.5100
 <L.S>= 0.000000000000E+00
 Annihilation of the first spin contaminant:
 S**2 before annihilation     0.7700,   after     0.7502
 Calling FoFJK, ICntrl=      2127 FMM=F ISym2X=0 I1Cent= 0 IOpClX= 1 NMat=1 NMatS=1 NMatT=0.
 ***** Axes restored to original set *****
 -------------------------------------------------------------------
 Center     Atomic                   Forces (Hartrees/Bohr)
 Number     Number              X              Y              Z
 -------------------------------------------------------------------
      1       16          -0.012476358    0.013754785    0.011591328
      2        8           0.003249803   -0.007058672   -0.000842002
      3        8           0.005470075   -0.001185609   -0.005604708
      4        8           0.006321511   -0.001861154    0.000620389
      5        8          -0.005984769   -0.003282500   -0.006904411
      6        6           0.007548427   -0.002003902    0.001050915
      7        1          -0.001936936   -0.000037296    0.000898583
      8        1          -0.000870384    0.000013300   -0.000383620
      9        1          -0.001321369    0.001661049   -0.000426475
 -------------------------------------------------------------------
 Cartesian Forces:  Max     0.013754785 RMS     0.005488616

 GradGradGradGradGradGradGradGradGradGradGradGradGradGradGradGradGradGrad
 Berny optimization.
 Using GEDIIS/GDIIS optimizer.
 Internal  Forces:  Max     0.007047644 RMS     0.003274064
 Search for a local minimum.
 Step number   3 out of a maximum of   37
 All quantities printed in internal units (Hartrees-Bohrs-Radians)
 Mixed Optimization -- RFO/linear search
 Update second derivatives using D2CorX and points    1    2    3
 DE= -2.35D-03 DEPred=-1.81D-03 R= 1.30D+00
 SS=  1.41D+00  RLast= 8.81D-02 DXNew= 8.4853D-01 2.6426D-01
 Trust test= 1.30D+00 RLast= 8.81D-02 DXMaxT set to 5.05D-01
 Use linear search instead of GDIIS.
     Eigenvalues ---    0.01714   0.02182   0.10315   0.10882   0.11442
     Eigenvalues ---    0.16000   0.16020   0.16237   0.16912   0.24472
     Eigenvalues ---    0.25000   0.25082   0.32838   0.35424   0.35592
     Eigenvalues ---    0.35860   0.43627   0.47972   0.87075   0.97715
     Eigenvalues ---    1.081281000.000001000.000001000.000001000.00000
     Eigenvalues --- 1000.000001000.00000
 RFO step:  Lambda=-1.04373956D-03 EMin= 1.71397872D-02
 Quartic linear search produced a step of  0.37420.
 Iteration  1 RMS(Cart)=  0.02037246 RMS(Int)=  0.00039952
 Iteration  2 RMS(Cart)=  0.00036842 RMS(Int)=  0.00020480
 Iteration  3 RMS(Cart)=  0.00000009 RMS(Int)=  0.00020480
 Variable       Old X    -DE/DX   Delta X   Delta X   Delta X     New X
                                 (Linear)    (Quad)   (Total)
    R1        2.76726   0.00691   0.00500   0.01270   0.01769   2.78495
    R2        2.76827   0.00703   0.00498   0.01286   0.01784   2.78611
    R3        2.73667  -0.00643   0.00208  -0.00788  -0.00579   2.73088
    R4        3.01241  -0.00705  -0.01524  -0.02391  -0.03915   2.97326
    R5        2.70794   0.00338   0.00770   0.01561   0.02331   2.73125
    R6        2.06572  -0.00173   0.00017  -0.00481  -0.00463   2.06108
    R7        2.05405  -0.00063  -0.00011  -0.00203  -0.00214   2.05192
    R8        2.06578  -0.00176   0.00021  -0.00487  -0.00466   2.06112
    A1        1.89245  -0.00369   0.00152  -0.04936  -0.04845   1.84400
    A2        1.97928   0.00385   0.01296   0.01614   0.02886   2.00814
    A3        1.88644  -0.00181  -0.01031   0.00174  -0.00893   1.87751
    A4        1.97721   0.00383   0.01281   0.01591   0.02848   2.00569
    A5        1.88590  -0.00179  -0.01026   0.00176  -0.00886   1.87704
    A6        1.83788  -0.00078  -0.00845   0.01541   0.00674   1.84461
    A7        2.03010   0.00224  -0.00126   0.01497   0.01371   2.04381
    A8        1.93006  -0.00149  -0.00334  -0.01337  -0.01685   1.91322
    A9        1.83726  -0.00042  -0.00387  -0.00364  -0.00760   1.82966
   A10        1.93007  -0.00150  -0.00337  -0.01344  -0.01696   1.91311
   A11        1.91842   0.00110   0.00342   0.01057   0.01388   1.93230
   A12        1.92767   0.00116   0.00360   0.00903   0.01245   1.94012
   A13        1.91848   0.00110   0.00340   0.01050   0.01379   1.93227
    D1        1.02163  -0.00314  -0.00494  -0.02821  -0.03282   0.98881
    D2       -1.02294   0.00313   0.00490   0.02815   0.03272  -0.99021
    D3       -3.14089   0.00000   0.00004   0.00013   0.00017  -3.14072
    D4        1.07055  -0.00030  -0.00005  -0.00366  -0.00365   1.06690
    D5       -3.14150   0.00000   0.00001  -0.00013  -0.00012   3.14156
    D6       -1.07029   0.00029   0.00002   0.00329   0.00324  -1.06705
         Item               Value     Threshold  Converged?
 Maximum Force            0.007048     0.000450     NO 
 RMS     Force            0.003274     0.000300     NO 
 Maximum Displacement     0.054449     0.001800     NO 
 RMS     Displacement     0.020495     0.001200     NO 
 Predicted change in Energy=-7.122117D-04
 GradGradGradGradGradGradGradGradGradGradGradGradGradGradGradGradGradGrad

                          Input orientation:                          
 ---------------------------------------------------------------------
 Center     Atomic      Atomic             Coordinates (Angstroms)
 Number     Number       Type             X           Y           Z
 ---------------------------------------------------------------------
      1         16           0       -2.358932    0.741069    0.132795
      2          8           0       -2.338013   -0.726803    0.262431
      3          8           0       -1.680024    1.037567   -1.141907
      4          8           0       -3.660302    1.350530    0.285650
      5          8           0       -1.473301    1.332900    1.290778
      6          6           0       -0.102301    0.881876    1.367387
      7          1           0        0.424496    1.154184    0.452010
      8          1           0        0.315522    1.406321    2.221437
      9          1           0       -0.080145   -0.196643    1.528420
 ---------------------------------------------------------------------
                    Distance matrix (angstroms):
                    1          2          3          4          5
     1  S    0.000000
     2  O    1.473734   0.000000
     3  O    1.474345   2.349067   0.000000
     4  O    1.445119   2.462580   2.461172   0.000000
     5  O    1.573382   2.459187   2.459250   2.406982   0.000000
     6  C    2.576127   2.967690   2.968166   3.748221   1.445315
     7  H    2.831966   3.347463   2.642570   4.092896   2.082571
     8  H    3.457989   3.927998   3.928138   4.422392   2.017772
     9  H    2.831951   2.642304   3.348662   4.093378   2.082513
                    6          7          8          9
     6  C    0.000000
     7  H    1.090679   0.000000
     8  H    1.085827   1.790620   0.000000
     9  H    1.090699   1.799459   1.790619   0.000000
 Stoichiometry    CH3O4S(2)
 Framework group  C1[X(CH3O4S)]
 Deg. of freedom    21
 Full point group                 C1      NOp   1
 Largest Abelian subgroup         C1      NOp   1
 Largest concise Abelian subgroup C1      NOp   1
                         Standard orientation:                         
 ---------------------------------------------------------------------
 Center     Atomic      Atomic             Coordinates (Angstroms)
 Number     Number       Type             X           Y           Z
 ---------------------------------------------------------------------
      1         16           0        0.468526    0.003320   -0.000633
      2          8           0        0.461302   -0.891235   -1.171790
      3          8           0        0.462557   -0.883369    1.177264
      4          8           0        1.509247    1.005949   -0.002687
      5          8           0       -0.888823    0.799016   -0.002255
      6          6           0       -2.107533    0.022052    0.000464
      7          1           0       -2.149263   -0.590572    0.901868
      8          1           0       -2.906172    0.757710   -0.001207
      9          1           0       -2.150039   -0.595466   -0.897584
 ---------------------------------------------------------------------
 Rotational constants (GHZ):      5.1236514      2.8178826      2.7104102
 Standard basis: 6-311+G(d) (5D, 7F)
 There are   149 symmetry adapted basis functions of A   symmetry.
 Integral buffers will be    131072 words long.
 Raffenetti 2 integral format.
 Two-electron integral symmetry is turned on.
   149 basis functions,   245 primitive gaussians,   155 cartesian basis functions
    29 alpha electrons       28 beta electrons
       nuclear repulsion energy       361.6946343023 Hartrees.
 NAtoms=    9 NActive=    9 NUniq=    9 SFac= 7.50D-01 NAtFMM=   80 NAOKFM=F Big=F
 One-electron integrals computed using PRISM.
 NBasis=   149 RedAO= T  NBF=   149
 NBsUse=   149 1.00D-06 NBFU=   149
 Initial guess read from the read-write file.
 B after Tr=     0.000000    0.000000    0.000000
         Rot=    1.000000    0.000000    0.000000    0.000000 Ang=   0.00 deg.
 Initial guess orbital symmetries:
 Alpha Orbitals:
       Occupied  (A) (A) (A) (A) (A) (A) (A) (A) (A) (A) (A) (A)
                 (A) (A) (A) (A) (A) (A) (A) (A) (A) (A) (A) (A)
                 (A) (A) (A) (A) (A)
       Virtual   (A) (A) (A) (A) (A) (A) (A) (A) (A) (A) (A) (A)
                 (A) (A) (A) (A) (A) (A) (A) (A) (A) (A) (A) (A)
                 (A) (A) (A) (A) (A) (A) (A) (A) (A) (A) (A) (A)
                 (A) (A) (A) (A) (A) (A) (A) (A) (A) (A) (A) (A)
                 (A) (A) (A) (A) (A) (A) (A) (A) (A) (A) (A) (A)
                 (A) (A) (A) (A) (A) (A) (A) (A) (A) (A) (A) (A)
                 (A) (A) (A) (A) (A) (A) (A) (A) (A) (A) (A) (A)
                 (A) (A) (A) (A) (A) (A) (A) (A) (A) (A) (A) (A)
                 (A) (A) (A) (A) (A) (A) (A) (A) (A) (A) (A) (A)
                 (A) (A) (A) (A) (A) (A) (A) (A) (A) (A) (A) (A)
 Beta  Orbitals:
       Occupied  (A) (A) (A) (A) (A) (A) (A) (A) (A) (A) (A) (A)
                 (A) (A) (A) (A) (A) (A) (A) (A) (A) (A) (A) (A)
                 (A) (A) (A) (A)
       Virtual   (A) (A) (A) (A) (A) (A) (A) (A) (A) (A) (A) (A)
                 (A) (A) (A) (A) (A) (A) (A) (A) (A) (A) (A) (A)
                 (A) (A) (A) (A) (A) (A) (A) (A) (A) (A) (A) (A)
                 (A) (A) (A) (A) (A) (A) (A) (A) (A) (A) (A) (A)
                 (A) (A) (A) (A) (A) (A) (A) (A) (A) (A) (A) (A)
                 (A) (A) (A) (A) (A) (A) (A) (A) (A) (A) (A) (A)
                 (A) (A) (A) (A) (A) (A) (A) (A) (A) (A) (A) (A)
                 (A) (A) (A) (A) (A) (A) (A) (A) (A) (A) (A) (A)
                 (A) (A) (A) (A) (A) (A) (A) (A) (A) (A) (A) (A)
                 (A) (A) (A) (A) (A) (A) (A) (A) (A) (A) (A) (A)
                 (A)
 Initial guess <Sx>= 0.0000 <Sy>= 0.0000 <Sz>= 0.5000 <S**2>= 0.7698 S= 0.5099
 Harris functional with IExCor= 1009 diagonalized for initial guess.
 ExpMin= 4.05D-02 ExpMax= 9.34D+04 ExpMxC= 3.17D+03 IAcc=2 IRadAn=         0 AccDes= 0.00D+00
 HarFok:  IExCor= 1009 AccDes= 0.00D+00 IRadAn=         0 IDoV= 1
 ScaDFX=  1.000000  1.000000  1.000000  1.000000
 FoFCou: FMM=F IPFlag=           0 FMFlag=      100000 FMFlg1=           0
         NFxFlg=           0 DoJE=T BraDBF=F KetDBF=T FulRan=T
         Omega=  0.000000  0.000000  1.000000  0.000000  0.000000 ICntrl=     500 IOpCl=  0
         NMat0=    1 NMatS0=    1 NMatT0=    0 NMatD0=    1 NMtDS0=    0 NMtDT0=    0
         I1Cent=           4 NGrid=           0.
 Petite list used in FoFCou.
 Requested convergence on RMS density matrix=1.00D-08 within 128 cycles.
 Requested convergence on MAX density matrix=1.00D-06.
 Requested convergence on             energy=1.00D-06.
 No special actions if energy rises.
 Restarting incremental Fock formation.
 SCF Done:  E(UM062X) =  -738.792373990     A.U. after   21 cycles
             Convg  =    0.2761D-08             -V/T =  2.0018
 <Sx>= 0.0000 <Sy>= 0.0000 <Sz>= 0.5000 <S**2>= 0.7681 S= 0.5090
 <L.S>= 0.000000000000E+00
 Annihilation of the first spin contaminant:
 S**2 before annihilation     0.7681,   after     0.7502
 Calling FoFJK, ICntrl=      2127 FMM=F ISym2X=0 I1Cent= 0 IOpClX= 1 NMat=1 NMatS=1 NMatT=0.
 ***** Axes restored to original set *****
 -------------------------------------------------------------------
 Center     Atomic                   Forces (Hartrees/Bohr)
 Number     Number              X              Y              Z
 -------------------------------------------------------------------
      1       16          -0.025077408    0.015062655    0.007339044
      2        8           0.003370972   -0.005554273   -0.003825529
      3        8           0.004008460   -0.004110082   -0.005110388
      4        8           0.013992246   -0.006414732   -0.001418264
      5        8           0.004745671    0.000354069    0.002651365
      6        6          -0.000978588    0.000514261    0.000239783
      7        1          -0.000174666   -0.000374513    0.000591416
      8        1          -0.000099766   -0.000149441   -0.000236064
      9        1           0.000213080    0.000672056   -0.000231365
 -------------------------------------------------------------------
 Cartesian Forces:  Max     0.025077408 RMS     0.006929819

 GradGradGradGradGradGradGradGradGradGradGradGradGradGradGradGradGradGrad
 Berny optimization.
 Using GEDIIS/GDIIS optimizer.
 Internal  Forces:  Max     0.015461270 RMS     0.004111960
 Search for a local minimum.
 Step number   4 out of a maximum of   37
 All quantities printed in internal units (Hartrees-Bohrs-Radians)
 Mixed Optimization -- RFO/linear search
 Update second derivatives using D2CorX and points    1    2    3    4
 DE= -1.18D-03 DEPred=-7.12D-04 R= 1.66D+00
 SS=  1.41D+00  RLast= 1.03D-01 DXNew= 8.4853D-01 3.0756D-01
 Trust test= 1.66D+00 RLast= 1.03D-01 DXMaxT set to 5.05D-01
 Use linear search instead of GDIIS.
     Eigenvalues ---    0.01714   0.02182   0.02468   0.10547   0.10981
     Eigenvalues ---    0.16000   0.16065   0.16771   0.16999   0.24286
     Eigenvalues ---    0.25000   0.25428   0.35378   0.35493   0.35595
     Eigenvalues ---    0.36922   0.45534   0.61633   0.84436   0.97715
     Eigenvalues ---    1.705871000.000001000.000001000.000001000.00000
     Eigenvalues --- 1000.000001000.00000
 RFO step:  Lambda=-1.77807742D-03 EMin= 1.71396213D-02
 Quartic linear search produced a step of  1.13329.
 Iteration  1 RMS(Cart)=  0.05626685 RMS(Int)=  0.00338915
 Iteration  2 RMS(Cart)=  0.00361661 RMS(Int)=  0.00091618
 Iteration  3 RMS(Cart)=  0.00000923 RMS(Int)=  0.00091616
 Iteration  4 RMS(Cart)=  0.00000001 RMS(Int)=  0.00091616
 Variable       Old X    -DE/DX   Delta X   Delta X   Delta X     New X
                                 (Linear)    (Quad)   (Total)
    R1        2.78495   0.00525   0.02005   0.03169   0.05174   2.83669
    R2        2.78611   0.00544   0.02022   0.03203   0.05225   2.83835
    R3        2.73088  -0.01546  -0.00657  -0.02242  -0.02899   2.70189
    R4        2.97326   0.00470  -0.04436  -0.03540  -0.07977   2.89350
    R5        2.73125  -0.00119   0.02642   0.02866   0.05508   2.78633
    R6        2.06108  -0.00068  -0.00525  -0.00160  -0.00685   2.05423
    R7        2.05192  -0.00029  -0.00242  -0.00171  -0.00414   2.04778
    R8        2.06112  -0.00070  -0.00528  -0.00153  -0.00681   2.05431
    A1        1.84400  -0.00879  -0.05491  -0.10934  -0.16695   1.67705
    A2        2.00814   0.00223   0.03271   0.05029   0.08177   2.08991
    A3        1.87751   0.00151  -0.01013  -0.00461  -0.01627   1.86124
    A4        2.00569   0.00229   0.03227   0.05031   0.08135   2.08704
    A5        1.87704   0.00150  -0.01004  -0.00455  -0.01613   1.86091
    A6        1.84461   0.00152   0.00763   0.01485   0.02121   1.86583
    A7        2.04381   0.00182   0.01554   0.01540   0.03094   2.07475
    A8        1.91322   0.00026  -0.01909  -0.00828  -0.02791   1.88530
    A9        1.82966  -0.00005  -0.00862  -0.01395  -0.02302   1.80664
   A10        1.91311   0.00027  -0.01922  -0.00822  -0.02799   1.88512
   A11        1.93230  -0.00006   0.01573   0.00991   0.02513   1.95743
   A12        1.94012  -0.00032   0.01411   0.00892   0.02232   1.96243
   A13        1.93227  -0.00006   0.01563   0.00991   0.02503   1.95730
    D1        0.98881  -0.00434  -0.03719  -0.06582  -0.10158   0.88723
    D2       -0.99021   0.00435   0.03708   0.06479   0.10044  -0.88978
    D3       -3.14072  -0.00003   0.00020  -0.00049  -0.00029  -3.14101
    D4        1.06690  -0.00003  -0.00414   0.00030  -0.00369   1.06321
    D5        3.14156   0.00000  -0.00014   0.00008  -0.00006   3.14150
    D6       -1.06705   0.00003   0.00368  -0.00011   0.00342  -1.06363
         Item               Value     Threshold  Converged?
 Maximum Force            0.015461     0.000450     NO 
 RMS     Force            0.004112     0.000300     NO 
 Maximum Displacement     0.143608     0.001800     NO 
 RMS     Displacement     0.057702     0.001200     NO 
 Predicted change in Energy=-2.132716D-03
 GradGradGradGradGradGradGradGradGradGradGradGradGradGradGradGradGradGrad

                          Input orientation:                          
 ---------------------------------------------------------------------
 Center     Atomic      Atomic             Coordinates (Angstroms)
 Number     Number       Type             X           Y           Z
 ---------------------------------------------------------------------
      1         16           0       -2.389534    0.779220    0.166443
      2          8           0       -2.262019   -0.715691    0.214627
      3          8           0       -1.637176    0.961866   -1.120639
      4          8           0       -3.673848    1.387069    0.325570
      5          8           0       -1.494524    1.331736    1.279173
      6          6           0       -0.095315    0.873932    1.360814
      7          1           0        0.404734    1.154508    0.437281
      8          1           0        0.296934    1.409971    2.217012
      9          1           0       -0.102250   -0.201611    1.518719
 ---------------------------------------------------------------------
                    Distance matrix (angstroms):
                    1          2          3          4          5
     1  S    0.000000
     2  O    1.501113   0.000000
     3  O    1.501993   2.233285   0.000000
     4  O    1.429778   2.535186   2.533841   0.000000
     5  O    1.531172   2.431927   2.432335   2.379469   0.000000
     6  C    2.588230   2.921516   2.922786   3.760444   1.474461
     7  H    2.832336   3.264781   2.575582   4.086734   2.085036
     8  H    3.437993   3.882812   3.883490   4.398316   2.023607
     9  H    2.832375   2.574789   3.267398   4.087030   2.084937
                    6          7          8          9
     6  C    0.000000
     7  H    1.087053   0.000000
     8  H    1.083638   1.801200   0.000000
     9  H    1.087095   1.807097   1.801155   0.000000
 Stoichiometry    CH3O4S(2)
 Framework group  C1[X(CH3O4S)]
 Deg. of freedom    21
 Full point group                 C1      NOp   1
 Largest Abelian subgroup         C1      NOp   1
 Largest concise Abelian subgroup C1      NOp   1
                         Standard orientation:                         
 ---------------------------------------------------------------------
 Center     Atomic      Atomic             Coordinates (Angstroms)
 Number     Number       Type             X           Y           Z
 ---------------------------------------------------------------------
      1         16           0       -0.486009   -0.036591   -0.000802
      2          8           0       -0.389445    0.963833   -1.115776
      3          8           0       -0.391594    0.961633    1.117507
      4          8           0       -1.543688   -0.998662   -0.000650
      5          8           0        0.829121   -0.820759   -0.000163
      6          6           0        2.101915   -0.076425    0.000578
      7          1           0        2.138061    0.527000    0.904047
      8          1           0        2.852383   -0.858134    0.001013
      9          1           0        2.139046    0.526777   -0.903050
 ---------------------------------------------------------------------
 Rotational constants (GHZ):      5.0881738      2.9202206      2.6694516
 Standard basis: 6-311+G(d) (5D, 7F)
 There are   149 symmetry adapted basis functions of A   symmetry.
 Integral buffers will be    131072 words long.
 Raffenetti 2 integral format.
 Two-electron integral symmetry is turned on.
   149 basis functions,   245 primitive gaussians,   155 cartesian basis functions
    29 alpha electrons       28 beta electrons
       nuclear repulsion energy       362.1388917753 Hartrees.
 NAtoms=    9 NActive=    9 NUniq=    9 SFac= 7.50D-01 NAtFMM=   80 NAOKFM=F Big=F
 One-electron integrals computed using PRISM.
 NBasis=   149 RedAO= T  NBF=   149
 NBsUse=   149 1.00D-06 NBFU=   149
 Initial guess read from the read-write file.
 B after Tr=     0.000000    0.000000    0.000000
         Rot=    1.000000    0.000000    0.000000    0.000000 Ang=   0.00 deg.
 Initial guess orbital symmetries:
 Alpha Orbitals:
       Occupied  (A) (A) (A) (A) (A) (A) (A) (A) (A) (A) (A) (A)
                 (A) (A) (A) (A) (A) (A) (A) (A) (A) (A) (A) (A)
                 (A) (A) (A) (A) (A)
       Virtual   (A) (A) (A) (A) (A) (A) (A) (A) (A) (A) (A) (A)
                 (A) (A) (A) (A) (A) (A) (A) (A) (A) (A) (A) (A)
                 (A) (A) (A) (A) (A) (A) (A) (A) (A) (A) (A) (A)
                 (A) (A) (A) (A) (A) (A) (A) (A) (A) (A) (A) (A)
                 (A) (A) (A) (A) (A) (A) (A) (A) (A) (A) (A) (A)
                 (A) (A) (A) (A) (A) (A) (A) (A) (A) (A) (A) (A)
                 (A) (A) (A) (A) (A) (A) (A) (A) (A) (A) (A) (A)
                 (A) (A) (A) (A) (A) (A) (A) (A) (A) (A) (A) (A)
                 (A) (A) (A) (A) (A) (A) (A) (A) (A) (A) (A) (A)
                 (A) (A) (A) (A) (A) (A) (A) (A) (A) (A) (A) (A)
 Beta  Orbitals:
       Occupied  (A) (A) (A) (A) (A) (A) (A) (A) (A) (A) (A) (A)
                 (A) (A) (A) (A) (A) (A) (A) (A) (A) (A) (A) (A)
                 (A) (A) (A) (A)
       Virtual   (A) (A) (A) (A) (A) (A) (A) (A) (A) (A) (A) (A)
                 (A) (A) (A) (A) (A) (A) (A) (A) (A) (A) (A) (A)
                 (A) (A) (A) (A) (A) (A) (A) (A) (A) (A) (A) (A)
                 (A) (A) (A) (A) (A) (A) (A) (A) (A) (A) (A) (A)
                 (A) (A) (A) (A) (A) (A) (A) (A) (A) (A) (A) (A)
                 (A) (A) (A) (A) (A) (A) (A) (A) (A) (A) (A) (A)
                 (A) (A) (A) (A) (A) (A) (A) (A) (A) (A) (A) (A)
                 (A) (A) (A) (A) (A) (A) (A) (A) (A) (A) (A) (A)
                 (A) (A) (A) (A) (A) (A) (A) (A) (A) (A) (A) (A)
                 (A) (A) (A) (A) (A) (A) (A) (A) (A) (A) (A) (A)
                 (A)
 Initial guess <Sx>= 0.0000 <Sy>= 0.0000 <Sz>= 0.5000 <S**2>= 0.8520 S= 0.5497
 Harris functional with IExCor= 1009 diagonalized for initial guess.
 ExpMin= 4.05D-02 ExpMax= 9.34D+04 ExpMxC= 3.17D+03 IAcc=2 IRadAn=         0 AccDes= 0.00D+00
 HarFok:  IExCor= 1009 AccDes= 0.00D+00 IRadAn=         0 IDoV= 1
 ScaDFX=  1.000000  1.000000  1.000000  1.000000
 FoFCou: FMM=F IPFlag=           0 FMFlag=      100000 FMFlg1=           0
         NFxFlg=           0 DoJE=T BraDBF=F KetDBF=T FulRan=T
         Omega=  0.000000  0.000000  1.000000  0.000000  0.000000 ICntrl=     500 IOpCl=  0
         NMat0=    1 NMatS0=    1 NMatT0=    0 NMatD0=    1 NMtDS0=    0 NMtDT0=    0
         I1Cent=           4 NGrid=           0.
 Petite list used in FoFCou.
 Requested convergence on RMS density matrix=1.00D-08 within 128 cycles.
 Requested convergence on MAX density matrix=1.00D-06.
 Requested convergence on             energy=1.00D-06.
 No special actions if energy rises.
 Restarting incremental Fock formation.
 SCF Done:  E(UM062X) =  -738.792110876     A.U. after   20 cycles
             Convg  =    0.9492D-08             -V/T =  2.0017
 <Sx>= 0.0000 <Sy>= 0.0000 <Sz>= 0.5000 <S**2>= 0.7638 S= 0.5069
 <L.S>= 0.000000000000E+00
 Annihilation of the first spin contaminant:
 S**2 before annihilation     0.7638,   after     0.7501
 Calling FoFJK, ICntrl=      2127 FMM=F ISym2X=0 I1Cent= 0 IOpClX= 1 NMat=1 NMatS=1 NMatT=0.
 ***** Axes restored to original set *****
 -------------------------------------------------------------------
 Center     Atomic                   Forces (Hartrees/Bohr)
 Number     Number              X              Y              Z
[...]
 ---------------------------------------------------------------------
                    Distance matrix (angstroms):
                    1          2          3          4          5
     1  S    0.000000
     2  O    1.490181   0.000000
     3  O    1.490895   2.250795   0.000000
     4  O    1.421900   2.501129   2.500855   0.000000
     5  O    1.577790   2.474919   2.475001   2.402854   0.000000
     6  C    2.588519   2.953051   2.953803   3.742756   1.443737
     7  H    2.846670   3.306454   2.626865   4.088635   2.081341
     8  H    3.465776   3.925344   3.925558   4.415163   2.014762
     9  H    2.846778   2.626591   3.308362   4.088589   2.081349
                    6          7          8          9
     6  C    0.000000
     7  H    1.089328   0.000000
     8  H    1.085539   1.790175   0.000000
     9  H    1.089321   1.794588   1.790205   0.000000
 Stoichiometry    CH3O4S(2)
 Framework group  C1[X(CH3O4S)]
 Deg. of freedom    21
 Full point group                 C1      NOp   1
 Largest Abelian subgroup         C1      NOp   1
 Largest concise Abelian subgroup C1      NOp   1
                         Standard orientation:                         
 ---------------------------------------------------------------------
 Center     Atomic      Atomic             Coordinates (Angstroms)
 Number     Number       Type             X           Y           Z
 ---------------------------------------------------------------------
      1         16           0       -0.484275   -0.035440   -0.000398
      2          8           0       -0.446761    0.941423   -1.125109
      3          8           0       -0.447628    0.940961    1.125686
      4          8           0       -1.503862   -1.026522   -0.000218
      5          8           0        0.889367   -0.811666    0.000354
      6          6           0        2.104242   -0.031630    0.000084
      7          1           0        2.144978    0.585310    0.896946
      8          1           0        2.903613   -0.766068    0.000856
      9          1           0        2.145437    0.584008   -0.897642
 ---------------------------------------------------------------------
 Rotational constants (GHZ):      5.0946198      2.8827480      2.6566335

 **********************************************************************

            Population analysis using the SCF density.

 **********************************************************************

 Orbital symmetries:
 Alpha Orbitals:
       Occupied  (A) (A) (A) (A) (A) (A) (A) (A) (A) (A) (A) (A)
                 (A) (A) (A) (A) (A) (A) (A) (A) (A) (A) (A) (A)
                 (A) (A) (A) (A) (A)
       Virtual   (A) (A) (A) (A) (A) (A) (A) (A) (A) (A) (A) (A)
                 (A) (A) (A) (A) (A) (A) (A) (A) (A) (A) (A) (A)
                 (A) (A) (A) (A) (A) (A) (A) (A) (A) (A) (A) (A)
                 (A) (A) (A) (A) (A) (A) (A) (A) (A) (A) (A) (A)
                 (A) (A) (A) (A) (A) (A) (A) (A) (A) (A) (A) (A)
                 (A) (A) (A) (A) (A) (A) (A) (A) (A) (A) (A) (A)
                 (A) (A) (A) (A) (A) (A) (A) (A) (A) (A) (A) (A)
                 (A) (A) (A) (A) (A) (A) (A) (A) (A) (A) (A) (A)
                 (A) (A) (A) (A) (A) (A) (A) (A) (A) (A) (A) (A)
                 (A) (A) (A) (A) (A) (A) (A) (A) (A) (A) (A) (A)
 Beta  Orbitals:
       Occupied  (A) (A) (A) (A) (A) (A) (A) (A) (A) (A) (A) (A)
                 (A) (A) (A) (A) (A) (A) (A) (A) (A) (A) (A) (A)
                 (A) (A) (A) (A)
       Virtual   (A) (A) (A) (A) (A) (A) (A) (A) (A) (A) (A) (A)
                 (A) (A) (A) (A) (A) (A) (A) (A) (A) (A) (A) (A)
                 (A) (A) (A) (A) (A) (A) (A) (A) (A) (A) (A) (A)
                 (A) (A) (A) (A) (A) (A) (A) (A) (A) (A) (A) (A)
                 (A) (A) (A) (A) (A) (A) (A) (A) (A) (A) (A) (A)
                 (A) (A) (A) (A) (A) (A) (A) (A) (A) (A) (A) (A)
                 (A) (A) (A) (A) (A) (A) (A) (A) (A) (A) (A) (A)
                 (A) (A) (A) (A) (A) (A) (A) (A) (A) (A) (A) (A)
                 (A) (A) (A) (A) (A) (A) (A) (A) (A) (A) (A) (A)
                 (A) (A) (A) (A) (A) (A) (A) (A) (A) (A) (A) (A)
                 (A)
 The electronic state is 2-A.
 Alpha  occ. eigenvalues --  -90.19917 -19.72764 -19.72727 -19.72222 -19.67976
 Alpha  occ. eigenvalues --  -10.63303  -8.53613  -6.45882  -6.45808  -6.45789
 Alpha  occ. eigenvalues --   -1.37580  -1.23282  -1.21271  -1.20243  -0.87484
 Alpha  occ. eigenvalues --   -0.74710  -0.68128  -0.65378  -0.64297  -0.58459
 Alpha  occ. eigenvalues --   -0.58163  -0.54535  -0.52249  -0.50694  -0.48212
 Alpha  occ. eigenvalues --   -0.46793  -0.45229  -0.44975  -0.43192
 Alpha virt. eigenvalues --    0.00400   0.01775   0.03460   0.03589   0.06323
 Alpha virt. eigenvalues --    0.06928   0.07003   0.10281   0.10300   0.11043
 Alpha virt. eigenvalues --    0.13211   0.14295   0.15965   0.16371   0.18057
 Alpha virt. eigenvalues --    0.19116   0.20075   0.21312   0.22301   0.22590
 Alpha virt. eigenvalues --    0.25776   0.25859   0.27777   0.28245   0.29583
 Alpha virt. eigenvalues --    0.29642   0.29858   0.30839   0.33242   0.33501
 Alpha virt. eigenvalues --    0.35695   0.38272   0.38809   0.39801   0.44378
 Alpha virt. eigenvalues --    0.45230   0.53000   0.54703   0.64351   0.64506
 Alpha virt. eigenvalues --    0.67370   0.68792   0.72099   0.84365   0.95969
 Alpha virt. eigenvalues --    0.96243   0.97938   1.03646   1.05338   1.08491
 Alpha virt. eigenvalues --    1.09732   1.11539   1.12856   1.12947   1.14667
 Alpha virt. eigenvalues --    1.15903   1.18809   1.20775   1.20845   1.28117
 Alpha virt. eigenvalues --    1.35520   1.43477   1.54483   1.57871   1.58432
 Alpha virt. eigenvalues --    1.59971   1.65319   1.70275   1.73190   1.77835
 Alpha virt. eigenvalues --    1.83435   1.92442   2.41312   2.43351   2.50274
 Alpha virt. eigenvalues --    2.75724   2.76388   2.78790   2.78975   2.80868
 Alpha virt. eigenvalues --    2.81423   2.83144   2.85663   2.86586   2.87846
 Alpha virt. eigenvalues --    2.94506   3.05110   3.05962   3.09102   3.10782
 Alpha virt. eigenvalues --    3.12688   3.19638   3.25954   3.29444   3.48874
 Alpha virt. eigenvalues --    3.53670   3.61554   3.87422   4.98922   4.99472
 Alpha virt. eigenvalues --    5.02045   5.02918   5.05094   5.06936   5.07133
 Alpha virt. eigenvalues --    5.10121   5.21970   5.22523   5.39336   5.42296
 Alpha virt. eigenvalues --    8.24458  17.43908  17.45198  17.62069  23.56164
 Alpha virt. eigenvalues --   49.87914  49.89047  49.90776  49.95857 189.46223
  Beta  occ. eigenvalues --  -90.19981 -19.72221 -19.71731 -19.71699 -19.67836
  Beta  occ. eigenvalues --  -10.63305  -8.53637  -6.45937  -6.45881  -6.45845
  Beta  occ. eigenvalues --   -1.36381  -1.22498  -1.20148  -1.16455  -0.87380
  Beta  occ. eigenvalues --   -0.73544  -0.66984  -0.63772  -0.62544  -0.57927
  Beta  occ. eigenvalues --   -0.56312  -0.52005  -0.47691  -0.47242  -0.45656
  Beta  occ. eigenvalues --   -0.44946  -0.44262  -0.41898
  Beta virt. eigenvalues --   -0.20153   0.00472   0.01902   0.03653   0.03678
  Beta virt. eigenvalues --    0.06425   0.06981   0.07141   0.10395   0.10854
  Beta virt. eigenvalues --    0.11103   0.13368   0.14878   0.16534   0.16895
  Beta virt. eigenvalues --    0.18117   0.19203   0.20232   0.21472   0.22696
  Beta virt. eigenvalues --    0.22955   0.26133   0.26434   0.27920   0.28457
  Beta virt. eigenvalues --    0.29615   0.29815   0.29976   0.31071   0.33326
  Beta virt. eigenvalues --    0.33449   0.36108   0.38657   0.38936   0.39802
  Beta virt. eigenvalues --    0.44438   0.45236   0.53334   0.54817   0.64400
  Beta virt. eigenvalues --    0.64769   0.67395   0.69563   0.72302   0.84115
  Beta virt. eigenvalues --    0.96496   0.96618   0.98332   1.04280   1.05702
  Beta virt. eigenvalues --    1.08616   1.10064   1.11969   1.13142   1.14497
  Beta virt. eigenvalues --    1.15705   1.16782   1.19547   1.21348   1.22711
  Beta virt. eigenvalues --    1.28150   1.35631   1.43672   1.55256   1.57917
  Beta virt. eigenvalues --    1.59946   1.60519   1.65763   1.70485   1.73519
  Beta virt. eigenvalues --    1.77274   1.82940   1.91492   2.41343   2.43368
  Beta virt. eigenvalues --    2.50327   2.77153   2.78838   2.79138   2.82970
  Beta virt. eigenvalues --    2.83472   2.83679   2.85759   2.86647   2.87442
  Beta virt. eigenvalues --    2.89090   2.94971   3.05512   3.07826   3.09341
  Beta virt. eigenvalues --    3.12173   3.13608   3.19651   3.26808   3.29788
  Beta virt. eigenvalues --    3.49905   3.55296   3.61891   3.87440   5.00459
  Beta virt. eigenvalues --    5.01614   5.03496   5.07022   5.07182   5.07910
  Beta virt. eigenvalues --    5.09076   5.10861   5.22592   5.23694   5.39767
  Beta virt. eigenvalues --    5.42316   8.24444  17.43691  17.44903  17.61721
  Beta virt. eigenvalues --   23.56162  49.87270  49.88204  49.90726  49.95559
  Beta virt. eigenvalues --  189.46136
          Condensed to atoms (all electrons):
              1          2          3          4          5          6
     1  S   15.389777   0.109104   0.109180   0.064153  -0.089527  -0.105928
     2  O    0.109104   8.352156   0.011054  -0.298162   0.011262   0.028682
     3  O    0.109180   0.011054   8.349801  -0.297047   0.011567   0.028652
     4  O    0.064153  -0.298162  -0.297047   8.704623  -0.121849   0.008445
     5  O   -0.089527   0.011262   0.011567  -0.121849   8.596738  -0.107151
     6  C   -0.105928   0.028682   0.028652   0.008445  -0.107151   5.725555
     7  H   -0.030361   0.001929   0.013185  -0.003479  -0.026868   0.388627
     8  H    0.018498  -0.002818  -0.002812   0.002801  -0.067575   0.398909
     9  H   -0.030454   0.013207   0.001937  -0.003483  -0.026851   0.388698
              7          8          9
     1  S   -0.030361   0.018498  -0.030454
     2  O    0.001929  -0.002818   0.013207
     3  O    0.013185  -0.002812   0.001937
     4  O   -0.003479   0.002801  -0.003483
     5  O   -0.026868  -0.067575  -0.026851
     6  C    0.388627   0.398909   0.388698
     7  H    0.413795  -0.021521  -0.030733
     8  H   -0.021521   0.410309  -0.021509
     9  H   -0.030733  -0.021509   0.413725
 Mulliken atomic charges:
              1
     1  S    0.565558
     2  O   -0.226413
     3  O   -0.225517
     4  O   -0.056003
     5  O   -0.179744
     6  C   -0.754488
     7  H    0.295426
     8  H    0.285718
     9  H    0.295463
 Sum of Mulliken atomic charges =   0.00000
 Mulliken charges with hydrogens summed into heavy atoms:
              1
     1  S    0.565558
     2  O   -0.226413
     3  O   -0.225517
     4  O   -0.056003
     5  O   -0.179744
     6  C    0.122119
 Sum of Mulliken charges with hydrogens summed into heavy atoms =   0.00000
          Atomic-Atomic Spin Densities.
              1          2          3          4          5          6
     1  S   -0.517550   0.036433   0.036038   0.160808   0.093411  -0.011657
     2  O    0.036433   0.507762  -0.034975   0.057913  -0.026548   0.005025
     3  O    0.036038  -0.034975   0.511909   0.057550  -0.026523   0.005008
     4  O    0.160808   0.057913   0.057550  -0.183548   0.013363  -0.005408
     5  O    0.093411  -0.026548  -0.026523   0.013363  -0.065828   0.018061
     6  C   -0.011657   0.005025   0.005008  -0.005408   0.018061  -0.010409
     7  H    0.000842  -0.000110  -0.000491   0.000113  -0.000696   0.000478
     8  H   -0.000868   0.000272   0.000271  -0.000343   0.001416  -0.000572
     9  H    0.000844  -0.000491  -0.000108   0.000112  -0.000692   0.000469
              7          8          9
     1  S    0.000842  -0.000868   0.000844
     2  O   -0.000110   0.000272  -0.000491
     3  O   -0.000491   0.000271  -0.000108
     4  O    0.000113  -0.000343   0.000112
     5  O   -0.000696   0.001416  -0.000692
     6  C    0.000478  -0.000572   0.000469
     7  H   -0.000084   0.000083   0.000092
     8  H    0.000083  -0.000571   0.000083
     9  H    0.000092   0.000083  -0.000085
 Mulliken atomic spin densities:
              1
     1  S   -0.201699
     2  O    0.545281
     3  O    0.548677
     4  O    0.100561
     5  O    0.005964
     6  C    0.000995
     7  H    0.000225
     8  H   -0.000229
     9  H    0.000224
 Sum of Mulliken atomic spin densities =   1.00000
 Electronic spatial extent (au):  <R**2>=            544.9219
 Charge=              0.0000 electrons
 Dipole moment (field-independent basis, Debye):
    X=              3.7557    Y=              0.3141    Z=              0.0029  Tot=              3.7688
 Quadrupole moment (field-independent basis, Debye-Ang):
   XX=            -36.8713   YY=            -45.5722   ZZ=            -42.3156
   XY=             -0.8231   XZ=             -0.0015   YZ=              0.0047
 Traceless Quadrupole moment (field-independent basis, Debye-Ang):
   XX=              4.7150   YY=             -3.9858   ZZ=             -0.7292
   XY=             -0.8231   XZ=             -0.0015   YZ=              0.0047
 Octapole moment (field-independent basis, Debye-Ang**2):
  XXX=             17.1769  YYY=              0.8050  ZZZ=              0.0077  XYY=              2.3522
  XXY=              2.6993  XXZ=              0.0014  XZZ=              0.1175  YZZ=             -3.0883
  YYZ=              0.0062  XYZ=             -0.0004
 Hexadecapole moment (field-independent basis, Debye-Ang**3):
 XXXX=           -339.7016 YYYY=           -163.9645 ZZZZ=           -127.3104 XXXY=            -13.5595
 XXXZ=              0.0053 YYYX=             -2.0030 YYYZ=              0.0089 ZZZX=             -0.0127
 ZZZY=              0.0052 XXYY=            -89.8199 XXZZ=            -82.5918 YYZZ=            -50.7365
 XXYZ=             -0.0058 YYXZ=              0.0019 ZZXY=              3.4390
 N-N= 3.614228655726D+02 E-N=-3.694041277037D+03  KE= 1.104600255330D+03
                          Isotropic Fermi Contact Couplings
        Atom                 a.u.       MegaHertz       Gauss      10(-4) cm-1
     1  S(33)             -0.08404     -28.86596     -10.30009      -9.62865
     2  O(17)              0.07148     -43.32858     -15.46071     -14.45286
     3  O(17)              0.07155     -43.37352     -15.47675     -14.46785
     4  O(17)              0.00667      -4.04285      -1.44259      -1.34855
     5  O(17)             -0.00677       4.10332       1.46417       1.36872
     6  C(13)             -0.00157      -1.75997      -0.62800      -0.58706
     7  H(1)               0.00017       0.75687       0.27007       0.25246
     8  H(1)              -0.00015      -0.65858      -0.23500      -0.21968
     9  H(1)               0.00017       0.75286       0.26864       0.25113
 --------------------------------------------------------
       Center         ----  Spin Dipole Couplings  ----
                      3XX-RR        3YY-RR        3ZZ-RR
 --------------------------------------------------------
     1   Atom        0.047824     -0.033557     -0.014266
     2   Atom       -1.019337      0.073872      0.945465
     3   Atom       -1.024622      0.079144      0.945478
     4   Atom       -0.170471     -0.167914      0.338385
     5   Atom       -0.019812     -0.025101      0.044913
     6   Atom        0.005345     -0.002814     -0.002531
     7   Atom        0.008497     -0.005214     -0.003282
     8   Atom        0.002582     -0.001026     -0.001556
     9   Atom        0.008458     -0.005199     -0.003259
 --------------------------------------------------------
                        XY            XZ            YZ
 --------------------------------------------------------
     1   Atom       -0.003797     -0.000004     -0.000216
     2   Atom        0.243311      0.332703      1.602363
     3   Atom        0.246735     -0.336104     -1.612497
     4   Atom       -0.012329      0.000256      0.000324
     5   Atom        0.006690     -0.000035     -0.000024
     6   Atom       -0.004363     -0.000016      0.000005
     7   Atom       -0.002156      0.001303     -0.000494
     8   Atom       -0.002418     -0.000005      0.000002
     9   Atom       -0.002157     -0.001328      0.000497
 --------------------------------------------------------


 ---------------------------------------------------------------------------------
              Anisotropic Spin Dipole Couplings in Principal Axis System
 ---------------------------------------------------------------------------------

       Atom             a.u.   MegaHertz   Gauss  10(-4) cm-1        Axes

              Baa    -0.0337    -1.383    -0.494    -0.461  0.0465  0.9989  0.0111
     1 S(33)  Bbb    -0.0143    -0.585    -0.209    -0.195 -0.0006 -0.0111  0.9999
              Bcc     0.0480     1.968     0.702     0.656  0.9989 -0.0465  0.0001
 
              Baa    -1.1518    83.346    29.740    27.801  0.1067  0.7819 -0.6143
     2 O(17)  Bbb    -1.0708    77.481    27.647    25.845  0.9863 -0.1616 -0.0343
              Bcc     2.2226  -160.827   -57.387   -53.646  0.1261  0.6022  0.7883
 
              Baa    -1.1583    83.813    29.906    27.957  0.1063  0.7809  0.6155
     3 O(17)  Bbb    -1.0770    77.931    27.808    25.995  0.9862 -0.1617  0.0349
              Bcc     2.2353  -161.743   -57.714   -53.952 -0.1268 -0.6033  0.7873
 
              Baa    -0.1816    13.140     4.689     4.383  0.7427  0.6696 -0.0008
     4 O(17)  Bbb    -0.1568    11.346     4.048     3.785 -0.6696  0.7427 -0.0001
              Bcc     0.3384   -24.485    -8.737    -8.167  0.0005  0.0006  1.0000
 
              Baa    -0.0297     2.145     0.766     0.716 -0.5623  0.8269  0.0000
     5 O(17)  Bbb    -0.0153     1.104     0.394     0.368  0.8269  0.5623  0.0007
              Bcc     0.0449    -3.250    -1.160    -1.084 -0.0006 -0.0004  1.0000
 
              Baa    -0.0047    -0.632    -0.225    -0.211  0.3981  0.9173  0.0007
     6 C(13)  Bbb    -0.0025    -0.340    -0.121    -0.113  0.0013 -0.0014  1.0000
              Bcc     0.0072     0.971     0.347     0.324  0.9173 -0.3981 -0.0018
 
              Baa    -0.0056    -2.980    -1.063    -0.994  0.1380  0.9815  0.1326
     7 H(1)   Bbb    -0.0034    -1.811    -0.646    -0.604 -0.1288 -0.1150  0.9850
              Bcc     0.0090     4.791     1.710     1.598  0.9820 -0.1530  0.1106
 
              Baa    -0.0022    -1.195    -0.426    -0.398  0.4484  0.8938  0.0006
     8 H(1)   Bbb    -0.0016    -0.830    -0.296    -0.277  0.0007 -0.0010  1.0000
              Bcc     0.0038     2.025     0.723     0.675  0.8938 -0.4484 -0.0011
 
              Baa    -0.0056    -2.972    -1.060    -0.991  0.1385  0.9816 -0.1315
     9 H(1)   Bbb    -0.0034    -1.803    -0.643    -0.601  0.1312  0.1134  0.9849
              Bcc     0.0089     4.775     1.704     1.593  0.9816 -0.1536 -0.1130
 

 ---------------------------------------------------------------------------------

 1\1\GINC-N0289\FOpt\UM062X\6-311+G(d)\C1H3O4S1(2)\WAB665\08-Mar-2017\0
 \\# opt M062X/6-311+G* geom=connectivity\\Title Card Required\\0,2\S,-
 2.3879680994,0.7662587625,0.1503934847\O,-2.2973333687,-0.7200779652,0
 .2072186088\O,-1.6667978009,0.9704266701,-1.1384029414\O,-3.664297365,
 1.3718382305,0.3118182012\O,-1.4746983868,1.3419959972,1.3009957692\C,
 -0.1070489102,0.884447934,1.3685362907\H,0.4161041642,1.1534531036,0.4
 517036276\H,0.3165122713,1.4059757949,2.2211785167\H,-0.0874725045,-0.
 1933185276,1.5255584425\\Version=EM64L-G09RevA.02\State=2-A\HF=-738.79
 45498\S2=0.764222\S2-1=0.\S2A=0.750075\RMSD=7.487e-09\RMSF=6.257e-05\D
 ipole=1.3486381,-0.0118365,0.6161524\Quadrupole=1.8315563,-1.5500698,-
 0.2814865,1.1186408,2.5186255,-0.7371844\PG=C01 [X(C1H3O4S1)]\\@


 MICHAEL FARADAY, ASKED BY A POLITICIAN WHAT GOOD
 HIS ELECTRICAL DISCOVERIES WERE, REPLIED 
 "AT PRESENT I DO NOT KNOW, BUT ONE DAY YOU WILL BE
 ABLE TO TAX THEM."
 Job cpu time:  0 days  1 hours  3 minutes  3.6 seconds.
 File lengths (MBytes):  RWF=    178 Int=      0 D2E=      0 Chk=      4 Scr=      4
 Normal termination of Gaussian 09 at Wed Mar  8 17:45:26 2017.
